
     Program PWSCF v.6.7MaX starts on 18Sep2022 at 16:11:52 

     This program is part of the open-source Quantum ESPRESSO suite
     for quantum simulation of materials; please cite
         "P. Giannozzi et al., J. Phys.:Condens. Matter 21 395502 (2009);
         "P. Giannozzi et al., J. Phys.:Condens. Matter 29 465901 (2017);
          URL http://www.quantum-espresso.org", 
     in publications or presentations arising from this work. More details at
     http://www.quantum-espresso.org/quote

     Parallel version (MPI), running on     1 processors

     MPI processes distributed on     1 nodes
     Waiting for input...
     Reading input from standard input

     Current dimensions of program PWSCF are:
     Max number of different atomic species (ntypx) = 10
     Max number of k-points (npk) =  40000
     Max angular momentum in pseudopotentials (lmaxx) =  3

     Subspace diagonalization in iterative solution of the eigenvalue problem:
     a serial algorithm will be used


     G-vector sticks info
     --------------------
     sticks:   dense  smooth     PW     G-vecs:    dense   smooth      PW
     Sum         649     649    211                10969    10969    1989



     bravais-lattice index     =            2
     lattice parameter (alat)  =      10.2600  a.u.
     unit-cell volume          =     270.0114 (a.u.)^3
     number of atoms/cell      =            2
     number of atomic types    =            1
     number of electrons       =         8.00
     number of Kohn-Sham states=            4
     kinetic-energy cutoff     =      45.0000  Ry
     charge density cutoff     =     180.0000  Ry
     scf convergence threshold =      1.0E-06
     mixing beta               =       0.7000
     number of iterations used =            8  plain     mixing
     Exchange-correlation=  SLA  PW   PBE  PBE
                           (   1   4   3   4   0   0   0)

     celldm(1)=  10.260000  celldm(2)=   0.000000  celldm(3)=   0.000000
     celldm(4)=   0.000000  celldm(5)=   0.000000  celldm(6)=   0.000000

     crystal axes: (cart. coord. in units of alat)
               a(1) = (  -0.500000   0.000000   0.500000 )  
               a(2) = (   0.000000   0.500000   0.500000 )  
               a(3) = (  -0.500000   0.500000   0.000000 )  

     reciprocal axes: (cart. coord. in units 2 pi/alat)
               b(1) = ( -1.000000 -1.000000  1.000000 )  
               b(2) = (  1.000000  1.000000  1.000000 )  
               b(3) = ( -1.000000  1.000000 -1.000000 )  


     PseudoPot. # 1 for Si read from file:
     ./Si.pbe-rrkj.UPF
     MD5 check sum: cf7ab5690cd9a85b22c4813f7e365554
     Pseudo is Norm-conserving, Zval =  4.0
     Generated by new atomic code, or converted to UPF format
     Using radial grid of  883 points,  3 beta functions with: 
                l(1) =   0
                l(2) =   0
                l(3) =   1

     atomic species   valence    mass     pseudopotential
        Si             4.00    28.08600     Si( 1.00)

     48 Sym. Ops., with inversion, found (24 have fractional translation)



   Cartesian axes

     site n.     atom                  positions (alat units)
         1           Si  tau(   1) = (   0.0000000   0.0000000   0.0000000  )
         2           Si  tau(   2) = (   0.2500000   0.2500000   0.2500000  )

     number of k points=    28
                       cart. coord. in units 2pi/alat
        k(    1) = (  -0.0833333   0.0833333   0.0833333), wk =   0.0185185
        k(    2) = (  -0.2500000   0.2500000  -0.0833333), wk =   0.0555556
        k(    3) = (  -0.4166667   0.4166667  -0.2500000), wk =   0.0555556
        k(    4) = (   0.4166667  -0.4166667   0.5833333), wk =   0.0555556
        k(    5) = (   0.2500000  -0.2500000   0.4166667), wk =   0.0555556
        k(    6) = (   0.0833333  -0.0833333   0.2500000), wk =   0.0555556
        k(    7) = (  -0.0833333   0.4166667   0.0833333), wk =   0.0555556
        k(    8) = (  -0.2500000   0.5833333  -0.0833333), wk =   0.1111111
        k(    9) = (   0.5833333  -0.2500000   0.7500000), wk =   0.1111111
        k(   10) = (   0.4166667  -0.0833333   0.5833333), wk =   0.1111111
        k(   11) = (   0.2500000   0.0833333   0.4166667), wk =   0.1111111
        k(   12) = (  -0.0833333   0.7500000   0.0833333), wk =   0.0555556
        k(   13) = (   0.7500000  -0.0833333   0.9166667), wk =   0.1111111
        k(   14) = (   0.5833333   0.0833333   0.7500000), wk =   0.1111111
        k(   15) = (   0.4166667   0.2500000   0.5833333), wk =   0.1111111
        k(   16) = (  -0.0833333  -0.9166667   0.0833333), wk =   0.0555556
        k(   17) = (  -0.2500000  -0.7500000  -0.0833333), wk =   0.1111111
        k(   18) = (  -0.0833333  -0.5833333   0.0833333), wk =   0.0555556
        k(   19) = (  -0.2500000   0.2500000   0.2500000), wk =   0.0185185
        k(   20) = (  -0.4166667   0.4166667   0.0833333), wk =   0.0555556
        k(   21) = (   0.4166667  -0.4166667   0.9166667), wk =   0.0555556
        k(   22) = (   0.2500000  -0.2500000   0.7500000), wk =   0.0555556
        k(   23) = (  -0.2500000   0.5833333   0.2500000), wk =   0.0555556
        k(   24) = (   0.5833333  -0.2500000   1.0833333), wk =   0.1111111
        k(   25) = (   0.4166667  -0.0833333   0.9166667), wk =   0.1111111
        k(   26) = (  -0.2500000  -1.0833333   0.2500000), wk =   0.0555556
        k(   27) = (  -0.4166667   0.4166667   0.4166667), wk =   0.0185185
        k(   28) = (   0.4166667  -0.4166667   1.2500000), wk =   0.0555556

     Dense  grid:    10969 G-vectors     FFT dimensions: (  32,  32,  32)

     Estimated max dynamical RAM per process >       9.98 MB

     Initial potential from superposition of free atoms

     starting charge    7.99889, renormalised to    8.00000
     Starting wfcs are    8 randomized atomic wfcs

     total cpu time spent up to now is        0.3 secs

     Self-consistent Calculation

     iteration #  1     ecut=    45.00 Ry     beta= 0.70
     Davidson diagonalization with overlap
     ethr =  1.00E-02,  avg # of iterations =  2.0

     Threshold (ethr) on eigenvalues was too large:
     Diagonalizing with lowered threshold

     Davidson diagonalization with overlap
     ethr =  5.96E-04,  avg # of iterations =  1.9

     total cpu time spent up to now is        0.8 secs

     total energy              =     -15.73877857 Ry
     estimated scf accuracy    <       0.05551136 Ry

     iteration #  2     ecut=    45.00 Ry     beta= 0.70
     Davidson diagonalization with overlap
     ethr =  6.94E-04,  avg # of iterations =  1.0

     total cpu time spent up to now is        1.0 secs

     total energy              =     -15.74064924 Ry
     estimated scf accuracy    <       0.00313234 Ry

     iteration #  3     ecut=    45.00 Ry     beta= 0.70
     Davidson diagonalization with overlap
     ethr =  3.92E-05,  avg # of iterations =  2.1

     total cpu time spent up to now is        1.3 secs

     total energy              =     -15.74129247 Ry
     estimated scf accuracy    <       0.00009466 Ry

     iteration #  4     ecut=    45.00 Ry     beta= 0.70
     Davidson diagonalization with overlap
     ethr =  1.18E-06,  avg # of iterations =  4.6

     total cpu time spent up to now is        1.6 secs

     total energy              =     -15.74136900 Ry
     estimated scf accuracy    <       0.00000384 Ry

     iteration #  5     ecut=    45.00 Ry     beta= 0.70
     Davidson diagonalization with overlap
     ethr =  4.80E-08,  avg # of iterations =  4.1

     total cpu time spent up to now is        2.0 secs

     End of self-consistent calculation

          k =-0.0833 0.0833 0.0833 (  1390 PWs)   bands (ev):

    -5.5795   5.3905   6.0926   6.0926

          k =-0.2500 0.2500-0.0833 (  1375 PWs)   bands (ev):

    -5.1011   3.3225   4.8575   5.8835

          k =-0.4167 0.4167-0.2500 (  1378 PWs)   bands (ev):

    -4.0028   0.5539   4.3972   5.2456

          k = 0.4167-0.4167 0.5833 (  1379 PWs)   bands (ev):

    -3.2965  -0.5985   4.4665   4.8635

          k = 0.2500-0.2500 0.4167 (  1380 PWs)   bands (ev):

    -4.4174   1.4034   4.9224   4.9669

          k = 0.0833-0.0833 0.2500 (  1380 PWs)   bands (ev):

    -5.3380   4.3333   5.4445   5.6394

          k =-0.0833 0.4167 0.0833 (  1366 PWs)   bands (ev):

    -4.8591   3.1477   4.7049   4.7125

          k =-0.2500 0.5833-0.0833 (  1378 PWs)   bands (ev):

    -3.9448   1.3091   3.3803   4.3266

          k = 0.5833-0.2500 0.7500 (  1385 PWs)   bands (ev):

    -2.8185  -0.4562   2.7830   4.0967

          k = 0.4167-0.0833 0.5833 (  1373 PWs)   bands (ev):

    -3.5475   0.6115   2.7350   4.5867

          k = 0.2500 0.0833 0.4167 (  1367 PWs)   bands (ev):

    -4.6326   2.3035   4.0799   5.2597

          k =-0.0833 0.7500 0.0833 (  1375 PWs)   bands (ev):

    -3.2314   0.4909   3.3392   3.6809

          k = 0.7500-0.0833 0.9167 (  1372 PWs)   bands (ev):

    -2.0290  -0.8513   2.4913   3.2718

          k = 0.5833 0.0833 0.7500 (  1380 PWs)   bands (ev):

    -2.3973  -0.5231   2.0085   3.8199

          k = 0.4167 0.2500 0.5833 (  1383 PWs)   bands (ev):

    -3.4328  -0.0886   3.6889   4.6849

          k =-0.0833-0.9167 0.0833 (  1369 PWs)   bands (ev):

    -2.1232  -0.8602   3.0681   3.4650

          k =-0.2500-0.7500-0.0833 (  1375 PWs)   bands (ev):

    -3.0609   0.2651   2.8181   3.6130

          k =-0.0833-0.5833 0.0833 (  1370 PWs)   bands (ev):

    -4.1518   1.8555   3.8883   4.1043

          k =-0.2500 0.2500 0.2500 (  1375 PWs)   bands (ev):

    -4.8705   2.3391   5.4785   5.4785

          k =-0.4167 0.4167 0.0833 (  1375 PWs)   bands (ev):

    -4.1883   1.4153   3.3453   5.3095

          k = 0.4167-0.4167 0.9167 (  1370 PWs)   bands (ev):

    -3.0016  -0.0225   2.2314   4.5200

          k = 0.2500-0.2500 0.7500 (  1374 PWs)   bands (ev):

    -2.9501  -0.1015   2.7151   4.0358

          k =-0.2500 0.5833 0.2500 (  1378 PWs)   bands (ev):

    -3.7619   0.6031   3.8199   4.4102

          k = 0.5833-0.2500 1.0833 (  1375 PWs)   bands (ev):

    -2.7544  -0.1288   2.3304   3.6105

          k = 0.4167-0.0833 0.9167 (  1380 PWs)   bands (ev):

    -1.9190  -0.8591   2.1599   2.9390

          k =-0.2500-1.0833 0.2500 (  1377 PWs)   bands (ev):

    -2.1298  -0.7695   2.0333   3.8406

          k =-0.4167 0.4167 0.4167 (  1383 PWs)   bands (ev):

    -3.6699  -0.1957   5.0901   5.0901

          k = 0.4167-0.4167 1.2500 (  1383 PWs)   bands (ev):

    -3.0604  -0.4938   3.2616   4.6476

     highest occupied level (ev):     6.0926

!    total energy              =     -15.74137170 Ry
     estimated scf accuracy    <       0.00000017 Ry

     The total energy is the sum of the following terms:
     one-electron contribution =       4.77890164 Ry
     hartree contribution      =       1.09377669 Ry
     xc contribution           =      -4.81312043 Ry
     ewald contribution        =     -16.80092960 Ry

     convergence has been achieved in   5 iterations

     Writing output data file ./Si_exc1.save/

     init_run     :      0.24s CPU      0.25s WALL (       1 calls)
     electrons    :      1.68s CPU      1.76s WALL (       1 calls)

     Called by init_run:
     wfcinit      :      0.16s CPU      0.17s WALL (       1 calls)
     potinit      :      0.02s CPU      0.02s WALL (       1 calls)
     hinit0       :      0.05s CPU      0.05s WALL (       1 calls)

     Called by electrons:
     c_bands      :      1.35s CPU      1.36s WALL (       6 calls)
     sum_band     :      0.25s CPU      0.25s WALL (       6 calls)
     v_of_rho     :      0.09s CPU      0.10s WALL (       6 calls)
     mix_rho      :      0.01s CPU      0.01s WALL (       6 calls)

     Called by c_bands:
     init_us_2    :      0.08s CPU      0.08s WALL (     364 calls)
     cegterg      :      1.29s CPU      1.30s WALL (     168 calls)

     Called by *egterg:
     cdiaghg      :      0.02s CPU      0.02s WALL (     581 calls)
     h_psi        :      1.32s CPU      1.33s WALL (     637 calls)
     g_psi        :      0.01s CPU      0.01s WALL (     441 calls)

     Called by h_psi:
     h_psi:calbec :      0.03s CPU      0.03s WALL (     637 calls)
     vloc_psi     :      1.26s CPU      1.28s WALL (     637 calls)
     add_vuspsi   :      0.02s CPU      0.02s WALL (     637 calls)

     General routines
     calbec       :      0.03s CPU      0.03s WALL (     637 calls)
     fft          :      0.02s CPU      0.02s WALL (      60 calls)
     ffts         :      0.00s CPU      0.00s WALL (       6 calls)
     fftw         :      1.24s CPU      1.25s WALL (    5180 calls)

     Parallel routines

     PWSCF        :      1.97s CPU      2.06s WALL


   This run was terminated on:  16:11:54  18Sep2022            

=------------------------------------------------------------------------------=
   JOB DONE.
=------------------------------------------------------------------------------=
