
     Program PWSCF v.6.7MaX starts on 18Sep2022 at 16:11:44 

     This program is part of the open-source Quantum ESPRESSO suite
     for quantum simulation of materials; please cite
         "P. Giannozzi et al., J. Phys.:Condens. Matter 21 395502 (2009);
         "P. Giannozzi et al., J. Phys.:Condens. Matter 29 465901 (2017);
          URL http://www.quantum-espresso.org", 
     in publications or presentations arising from this work. More details at
     http://www.quantum-espresso.org/quote

     Parallel version (MPI), running on     1 processors

     MPI processes distributed on     1 nodes
     Waiting for input...
     Reading input from standard input

     Current dimensions of program PWSCF are:
     Max number of different atomic species (ntypx) = 10
     Max number of k-points (npk) =  40000
     Max angular momentum in pseudopotentials (lmaxx) =  3

     Subspace diagonalization in iterative solution of the eigenvalue problem:
     a serial algorithm will be used


     G-vector sticks info
     --------------------
     sticks:   dense  smooth     PW     G-vecs:    dense   smooth      PW
     Sum         295     295    109                 3287     3287     701



     bravais-lattice index     =            2
     lattice parameter (alat)  =      10.2600  a.u.
     unit-cell volume          =     270.0114 (a.u.)^3
     number of atoms/cell      =            2
     number of atomic types    =            1
     number of electrons       =         8.00
     number of Kohn-Sham states=            4
     kinetic-energy cutoff     =      20.0000  Ry
     charge density cutoff     =      80.0000  Ry
     scf convergence threshold =      1.0E-06
     mixing beta               =       0.7000
     number of iterations used =            8  plain     mixing
     Exchange-correlation=  SLA  PW   PBE  PBE
                           (   1   4   3   4   0   0   0)

     celldm(1)=  10.260000  celldm(2)=   0.000000  celldm(3)=   0.000000
     celldm(4)=   0.000000  celldm(5)=   0.000000  celldm(6)=   0.000000

     crystal axes: (cart. coord. in units of alat)
               a(1) = (  -0.500000   0.000000   0.500000 )  
               a(2) = (   0.000000   0.500000   0.500000 )  
               a(3) = (  -0.500000   0.500000   0.000000 )  

     reciprocal axes: (cart. coord. in units 2 pi/alat)
               b(1) = ( -1.000000 -1.000000  1.000000 )  
               b(2) = (  1.000000  1.000000  1.000000 )  
               b(3) = ( -1.000000  1.000000 -1.000000 )  


     PseudoPot. # 1 for Si read from file:
     ./Si.pbe-rrkj.UPF
     MD5 check sum: cf7ab5690cd9a85b22c4813f7e365554
     Pseudo is Norm-conserving, Zval =  4.0
     Generated by new atomic code, or converted to UPF format
     Using radial grid of  883 points,  3 beta functions with: 
                l(1) =   0
                l(2) =   0
                l(3) =   1

     atomic species   valence    mass     pseudopotential
        Si             4.00    28.08600     Si( 1.00)

     48 Sym. Ops., with inversion, found (24 have fractional translation)



   Cartesian axes

     site n.     atom                  positions (alat units)
         1           Si  tau(   1) = (   0.0000000   0.0000000   0.0000000  )
         2           Si  tau(   2) = (   0.2500000   0.2500000   0.2500000  )

     number of k points=    28
                       cart. coord. in units 2pi/alat
        k(    1) = (  -0.0833333   0.0833333   0.0833333), wk =   0.0185185
        k(    2) = (  -0.2500000   0.2500000  -0.0833333), wk =   0.0555556
        k(    3) = (  -0.4166667   0.4166667  -0.2500000), wk =   0.0555556
        k(    4) = (   0.4166667  -0.4166667   0.5833333), wk =   0.0555556
        k(    5) = (   0.2500000  -0.2500000   0.4166667), wk =   0.0555556
        k(    6) = (   0.0833333  -0.0833333   0.2500000), wk =   0.0555556
        k(    7) = (  -0.0833333   0.4166667   0.0833333), wk =   0.0555556
        k(    8) = (  -0.2500000   0.5833333  -0.0833333), wk =   0.1111111
        k(    9) = (   0.5833333  -0.2500000   0.7500000), wk =   0.1111111
        k(   10) = (   0.4166667  -0.0833333   0.5833333), wk =   0.1111111
        k(   11) = (   0.2500000   0.0833333   0.4166667), wk =   0.1111111
        k(   12) = (  -0.0833333   0.7500000   0.0833333), wk =   0.0555556
        k(   13) = (   0.7500000  -0.0833333   0.9166667), wk =   0.1111111
        k(   14) = (   0.5833333   0.0833333   0.7500000), wk =   0.1111111
        k(   15) = (   0.4166667   0.2500000   0.5833333), wk =   0.1111111
        k(   16) = (  -0.0833333  -0.9166667   0.0833333), wk =   0.0555556
        k(   17) = (  -0.2500000  -0.7500000  -0.0833333), wk =   0.1111111
        k(   18) = (  -0.0833333  -0.5833333   0.0833333), wk =   0.0555556
        k(   19) = (  -0.2500000   0.2500000   0.2500000), wk =   0.0185185
        k(   20) = (  -0.4166667   0.4166667   0.0833333), wk =   0.0555556
        k(   21) = (   0.4166667  -0.4166667   0.9166667), wk =   0.0555556
        k(   22) = (   0.2500000  -0.2500000   0.7500000), wk =   0.0555556
        k(   23) = (  -0.2500000   0.5833333   0.2500000), wk =   0.0555556
        k(   24) = (   0.5833333  -0.2500000   1.0833333), wk =   0.1111111
        k(   25) = (   0.4166667  -0.0833333   0.9166667), wk =   0.1111111
        k(   26) = (  -0.2500000  -1.0833333   0.2500000), wk =   0.0555556
        k(   27) = (  -0.4166667   0.4166667   0.4166667), wk =   0.0185185
        k(   28) = (   0.4166667  -0.4166667   1.2500000), wk =   0.0555556

     Dense  grid:     3287 G-vectors     FFT dimensions: (  24,  24,  24)

     Estimated max dynamical RAM per process >       3.33 MB

     Initial potential from superposition of free atoms

     starting charge    7.99889, renormalised to    8.00000
     Starting wfcs are    8 randomized atomic wfcs

     total cpu time spent up to now is        0.1 secs

     Self-consistent Calculation

     iteration #  1     ecut=    20.00 Ry     beta= 0.70
     Davidson diagonalization with overlap
     ethr =  1.00E-02,  avg # of iterations =  2.0

     Threshold (ethr) on eigenvalues was too large:
     Diagonalizing with lowered threshold

     Davidson diagonalization with overlap
     ethr =  5.95E-04,  avg # of iterations =  1.8

     total cpu time spent up to now is        0.3 secs

     total energy              =     -15.73813830 Ry
     estimated scf accuracy    <       0.05559146 Ry

     iteration #  2     ecut=    20.00 Ry     beta= 0.70
     Davidson diagonalization with overlap
     ethr =  6.95E-04,  avg # of iterations =  1.0

     total cpu time spent up to now is        0.4 secs

     total energy              =     -15.73996857 Ry
     estimated scf accuracy    <       0.00313904 Ry

     iteration #  3     ecut=    20.00 Ry     beta= 0.70
     Davidson diagonalization with overlap
     ethr =  3.92E-05,  avg # of iterations =  2.2

     total cpu time spent up to now is        0.5 secs

     total energy              =     -15.74064695 Ry
     estimated scf accuracy    <       0.00010672 Ry

     iteration #  4     ecut=    20.00 Ry     beta= 0.70
     Davidson diagonalization with overlap
     ethr =  1.33E-06,  avg # of iterations =  4.6

     total cpu time spent up to now is        0.7 secs

     total energy              =     -15.74071932 Ry
     estimated scf accuracy    <       0.00001055 Ry

     iteration #  5     ecut=    20.00 Ry     beta= 0.70
     Davidson diagonalization with overlap
     ethr =  1.32E-07,  avg # of iterations =  3.5

     total cpu time spent up to now is        0.8 secs

     End of self-consistent calculation

          k =-0.0833 0.0833 0.0833 (   405 PWs)   bands (ev):

    -5.5783   5.3922   6.0941   6.0941

          k =-0.2500 0.2500-0.0833 (   399 PWs)   bands (ev):

    -5.0999   3.3241   4.8591   5.8853

          k =-0.4167 0.4167-0.2500 (   409 PWs)   bands (ev):

    -4.0018   0.5550   4.3986   5.2474

          k = 0.4167-0.4167 0.5833 (   407 PWs)   bands (ev):

    -3.2954  -0.5975   4.4678   4.8652

          k = 0.2500-0.2500 0.4167 (   405 PWs)   bands (ev):

    -4.4163   1.4047   4.9241   4.9686

          k = 0.0833-0.0833 0.2500 (   401 PWs)   bands (ev):

    -5.3368   4.3350   5.4460   5.6411

          k =-0.0833 0.4167 0.0833 (   404 PWs)   bands (ev):

    -4.8580   3.1492   4.7067   4.7140

          k =-0.2500 0.5833-0.0833 (   409 PWs)   bands (ev):

    -3.9438   1.3104   3.3817   4.3282

          k = 0.5833-0.2500 0.7500 (   409 PWs)   bands (ev):

    -2.8174  -0.4552   2.7842   4.0982

          k = 0.4167-0.0833 0.5833 (   411 PWs)   bands (ev):

    -3.5464   0.6128   2.7363   4.5883

          k = 0.2500 0.0833 0.4167 (   404 PWs)   bands (ev):

    -4.6315   2.3049   4.0815   5.2615

          k =-0.0833 0.7500 0.0833 (   413 PWs)   bands (ev):

    -3.2303   0.4922   3.3407   3.6824

          k = 0.7500-0.0833 0.9167 (   411 PWs)   bands (ev):

    -2.0279  -0.8501   2.4927   3.2732

          k = 0.5833 0.0833 0.7500 (   405 PWs)   bands (ev):

    -2.3961  -0.5219   2.0097   3.8215

          k = 0.4167 0.2500 0.5833 (   407 PWs)   bands (ev):

    -3.4317  -0.0876   3.6903   4.6866

          k =-0.0833-0.9167 0.0833 (   413 PWs)   bands (ev):

    -2.1221  -0.8590   3.0695   3.4665

          k =-0.2500-0.7500-0.0833 (   410 PWs)   bands (ev):

    -3.0599   0.2664   2.8195   3.6145

          k =-0.0833-0.5833 0.0833 (   413 PWs)   bands (ev):

    -4.1508   1.8568   3.8898   4.1059

          k =-0.2500 0.2500 0.2500 (   401 PWs)   bands (ev):

    -4.8694   2.3407   5.4802   5.4802

          k =-0.4167 0.4167 0.0833 (   404 PWs)   bands (ev):

    -4.1872   1.4166   3.3467   5.3115

          k = 0.4167-0.4167 0.9167 (   406 PWs)   bands (ev):

    -3.0005  -0.0212   2.2326   4.5216

          k = 0.2500-0.2500 0.7500 (   412 PWs)   bands (ev):

    -2.9491  -0.1004   2.7163   4.0374

          k =-0.2500 0.5833 0.2500 (   412 PWs)   bands (ev):

    -3.7608   0.6043   3.8212   4.4118

          k = 0.5833-0.2500 1.0833 (   409 PWs)   bands (ev):

    -2.7533  -0.1276   2.3316   3.6119

          k = 0.4167-0.0833 0.9167 (   405 PWs)   bands (ev):

    -1.9179  -0.8579   2.1612   2.9404

          k =-0.2500-1.0833 0.2500 (   410 PWs)   bands (ev):

    -2.1287  -0.7683   2.0344   3.8421

          k =-0.4167 0.4167 0.4167 (   413 PWs)   bands (ev):

    -3.6689  -0.1947   5.0919   5.0919

          k = 0.4167-0.4167 1.2500 (   406 PWs)   bands (ev):

    -3.0593  -0.4928   3.2630   4.6493

     highest occupied level (ev):     6.0941

!    total energy              =     -15.74072343 Ry
     estimated scf accuracy    <       0.00000027 Ry

     The total energy is the sum of the following terms:
     one-electron contribution =       4.77956307 Ry
     hartree contribution      =       1.09369193 Ry
     xc contribution           =      -4.81304883 Ry
     ewald contribution        =     -16.80092959 Ry

     convergence has been achieved in   5 iterations

     Writing output data file ./Si_exc1.save/

     init_run     :      0.12s CPU      0.12s WALL (       1 calls)
     electrons    :      0.64s CPU      0.68s WALL (       1 calls)

     Called by init_run:
     wfcinit      :      0.06s CPU      0.06s WALL (       1 calls)
     potinit      :      0.01s CPU      0.01s WALL (       1 calls)
     hinit0       :      0.04s CPU      0.05s WALL (       1 calls)

     Called by electrons:
     c_bands      :      0.50s CPU      0.50s WALL (       6 calls)
     sum_band     :      0.09s CPU      0.09s WALL (       6 calls)
     v_of_rho     :      0.04s CPU      0.04s WALL (       6 calls)
     mix_rho      :      0.00s CPU      0.00s WALL (       6 calls)

     Called by c_bands:
     init_us_2    :      0.03s CPU      0.03s WALL (     364 calls)
     cegterg      :      0.49s CPU      0.49s WALL (     168 calls)

     Called by *egterg:
     cdiaghg      :      0.01s CPU      0.01s WALL (     564 calls)
     h_psi        :      0.49s CPU      0.49s WALL (     620 calls)
     g_psi        :      0.00s CPU      0.00s WALL (     424 calls)

     Called by h_psi:
     h_psi:calbec :      0.01s CPU      0.01s WALL (     620 calls)
     vloc_psi     :      0.47s CPU      0.47s WALL (     620 calls)
     add_vuspsi   :      0.01s CPU      0.01s WALL (     620 calls)

     General routines
     calbec       :      0.01s CPU      0.01s WALL (     620 calls)
     fft          :      0.02s CPU      0.02s WALL (      60 calls)
     ffts         :      0.00s CPU      0.00s WALL (       6 calls)
     fftw         :      0.47s CPU      0.47s WALL (    5044 calls)

     Parallel routines

     PWSCF        :      0.80s CPU      0.85s WALL


   This run was terminated on:  16:11:45  18Sep2022            

=------------------------------------------------------------------------------=
   JOB DONE.
=------------------------------------------------------------------------------=
