
     Program PWSCF v.6.7MaX starts on 18Sep2022 at 16:11:43 

     This program is part of the open-source Quantum ESPRESSO suite
     for quantum simulation of materials; please cite
         "P. Giannozzi et al., J. Phys.:Condens. Matter 21 395502 (2009);
         "P. Giannozzi et al., J. Phys.:Condens. Matter 29 465901 (2017);
          URL http://www.quantum-espresso.org", 
     in publications or presentations arising from this work. More details at
     http://www.quantum-espresso.org/quote

     Parallel version (MPI), running on     1 processors

     MPI processes distributed on     1 nodes
     Waiting for input...
     Reading input from standard input

     Current dimensions of program PWSCF are:
     Max number of different atomic species (ntypx) = 10
     Max number of k-points (npk) =  40000
     Max angular momentum in pseudopotentials (lmaxx) =  3

     Subspace diagonalization in iterative solution of the eigenvalue problem:
     a serial algorithm will be used


     G-vector sticks info
     --------------------
     sticks:   dense  smooth     PW     G-vecs:    dense   smooth      PW
     Sum         151     151     55                 1139     1139     283



     bravais-lattice index     =            2
     lattice parameter (alat)  =      10.2600  a.u.
     unit-cell volume          =     270.0114 (a.u.)^3
     number of atoms/cell      =            2
     number of atomic types    =            1
     number of electrons       =         8.00
     number of Kohn-Sham states=            4
     kinetic-energy cutoff     =      10.0000  Ry
     charge density cutoff     =      40.0000  Ry
     scf convergence threshold =      1.0E-06
     mixing beta               =       0.7000
     number of iterations used =            8  plain     mixing
     Exchange-correlation=  SLA  PW   PBE  PBE
                           (   1   4   3   4   0   0   0)

     celldm(1)=  10.260000  celldm(2)=   0.000000  celldm(3)=   0.000000
     celldm(4)=   0.000000  celldm(5)=   0.000000  celldm(6)=   0.000000

     crystal axes: (cart. coord. in units of alat)
               a(1) = (  -0.500000   0.000000   0.500000 )  
               a(2) = (   0.000000   0.500000   0.500000 )  
               a(3) = (  -0.500000   0.500000   0.000000 )  

     reciprocal axes: (cart. coord. in units 2 pi/alat)
               b(1) = ( -1.000000 -1.000000  1.000000 )  
               b(2) = (  1.000000  1.000000  1.000000 )  
               b(3) = ( -1.000000  1.000000 -1.000000 )  


     PseudoPot. # 1 for Si read from file:
     ./Si.pbe-rrkj.UPF
     MD5 check sum: cf7ab5690cd9a85b22c4813f7e365554
     Pseudo is Norm-conserving, Zval =  4.0
     Generated by new atomic code, or converted to UPF format
     Using radial grid of  883 points,  3 beta functions with: 
                l(1) =   0
                l(2) =   0
                l(3) =   1

     atomic species   valence    mass     pseudopotential
        Si             4.00    28.08600     Si( 1.00)

     48 Sym. Ops., with inversion, found (24 have fractional translation)



   Cartesian axes

     site n.     atom                  positions (alat units)
         1           Si  tau(   1) = (   0.0000000   0.0000000   0.0000000  )
         2           Si  tau(   2) = (   0.2500000   0.2500000   0.2500000  )

     number of k points=    28
                       cart. coord. in units 2pi/alat
        k(    1) = (  -0.0833333   0.0833333   0.0833333), wk =   0.0185185
        k(    2) = (  -0.2500000   0.2500000  -0.0833333), wk =   0.0555556
        k(    3) = (  -0.4166667   0.4166667  -0.2500000), wk =   0.0555556
        k(    4) = (   0.4166667  -0.4166667   0.5833333), wk =   0.0555556
        k(    5) = (   0.2500000  -0.2500000   0.4166667), wk =   0.0555556
        k(    6) = (   0.0833333  -0.0833333   0.2500000), wk =   0.0555556
        k(    7) = (  -0.0833333   0.4166667   0.0833333), wk =   0.0555556
        k(    8) = (  -0.2500000   0.5833333  -0.0833333), wk =   0.1111111
        k(    9) = (   0.5833333  -0.2500000   0.7500000), wk =   0.1111111
        k(   10) = (   0.4166667  -0.0833333   0.5833333), wk =   0.1111111
        k(   11) = (   0.2500000   0.0833333   0.4166667), wk =   0.1111111
        k(   12) = (  -0.0833333   0.7500000   0.0833333), wk =   0.0555556
        k(   13) = (   0.7500000  -0.0833333   0.9166667), wk =   0.1111111
        k(   14) = (   0.5833333   0.0833333   0.7500000), wk =   0.1111111
        k(   15) = (   0.4166667   0.2500000   0.5833333), wk =   0.1111111
        k(   16) = (  -0.0833333  -0.9166667   0.0833333), wk =   0.0555556
        k(   17) = (  -0.2500000  -0.7500000  -0.0833333), wk =   0.1111111
        k(   18) = (  -0.0833333  -0.5833333   0.0833333), wk =   0.0555556
        k(   19) = (  -0.2500000   0.2500000   0.2500000), wk =   0.0185185
        k(   20) = (  -0.4166667   0.4166667   0.0833333), wk =   0.0555556
        k(   21) = (   0.4166667  -0.4166667   0.9166667), wk =   0.0555556
        k(   22) = (   0.2500000  -0.2500000   0.7500000), wk =   0.0555556
        k(   23) = (  -0.2500000   0.5833333   0.2500000), wk =   0.0555556
        k(   24) = (   0.5833333  -0.2500000   1.0833333), wk =   0.1111111
        k(   25) = (   0.4166667  -0.0833333   0.9166667), wk =   0.1111111
        k(   26) = (  -0.2500000  -1.0833333   0.2500000), wk =   0.0555556
        k(   27) = (  -0.4166667   0.4166667   0.4166667), wk =   0.0185185
        k(   28) = (   0.4166667  -0.4166667   1.2500000), wk =   0.0555556

     Dense  grid:     1139 G-vectors     FFT dimensions: (  16,  16,  16)

     Estimated max dynamical RAM per process >       1.16 MB

     Initial potential from superposition of free atoms

     starting charge    7.99889, renormalised to    8.00000
     Starting wfcs are    8 randomized atomic wfcs

     total cpu time spent up to now is        0.1 secs

     Self-consistent Calculation

     iteration #  1     ecut=    10.00 Ry     beta= 0.70
     Davidson diagonalization with overlap
     ethr =  1.00E-02,  avg # of iterations =  2.0

     Threshold (ethr) on eigenvalues was too large:
     Diagonalizing with lowered threshold

     Davidson diagonalization with overlap
     ethr =  5.87E-04,  avg # of iterations =  1.8

     total cpu time spent up to now is        0.1 secs

     total energy              =     -15.69458147 Ry
     estimated scf accuracy    <       0.05373625 Ry

     iteration #  2     ecut=    10.00 Ry     beta= 0.70
     Davidson diagonalization with overlap
     ethr =  6.72E-04,  avg # of iterations =  1.0

     total cpu time spent up to now is        0.1 secs

     total energy              =     -15.69598852 Ry
     estimated scf accuracy    <       0.00307055 Ry

     iteration #  3     ecut=    10.00 Ry     beta= 0.70
     Davidson diagonalization with overlap
     ethr =  3.84E-05,  avg # of iterations =  2.0

     total cpu time spent up to now is        0.2 secs

     total energy              =     -15.69641903 Ry
     estimated scf accuracy    <       0.00006126 Ry

     iteration #  4     ecut=    10.00 Ry     beta= 0.70
     Davidson diagonalization with overlap
     ethr =  7.66E-07,  avg # of iterations =  4.6

     total cpu time spent up to now is        0.2 secs

     End of self-consistent calculation

          k =-0.0833 0.0833 0.0833 (   153 PWs)   bands (ev):

    -5.5363   5.4277   6.1274   6.1274

          k =-0.2500 0.2500-0.0833 (   147 PWs)   bands (ev):

    -5.0367   3.3773   4.8896   5.9145

          k =-0.4167 0.4167-0.2500 (   147 PWs)   bands (ev):

    -3.9384   0.6038   4.4332   5.2700

          k = 0.4167-0.4167 0.5833 (   147 PWs)   bands (ev):

    -3.2303  -0.5460   4.5034   4.8869

          k = 0.2500-0.2500 0.4167 (   145 PWs)   bands (ev):

    -4.3463   1.4559   4.9491   5.0065

          k = 0.0833-0.0833 0.2500 (   150 PWs)   bands (ev):

    -5.2871   4.3881   5.4717   5.6740

          k =-0.0833 0.4167 0.0833 (   143 PWs)   bands (ev):

    -4.7825   3.2217   4.7381   4.7399

          k =-0.2500 0.5833-0.0833 (   145 PWs)   bands (ev):

    -3.8713   1.3830   3.4076   4.3511

          k = 0.5833-0.2500 0.7500 (   145 PWs)   bands (ev):

    -2.7379  -0.3929   2.8186   4.1169

          k = 0.4167-0.0833 0.5833 (   143 PWs)   bands (ev):

    -3.4698   0.6887   2.7656   4.6114

          k = 0.2500 0.0833 0.4167 (   144 PWs)   bands (ev):

    -4.5599   2.3681   4.1117   5.2925

          k =-0.0833 0.7500 0.0833 (   139 PWs)   bands (ev):

    -3.1417   0.5904   3.3594   3.7008

          k = 0.7500-0.0833 0.9167 (   140 PWs)   bands (ev):

    -1.9343  -0.7553   2.5114   3.2922

          k = 0.5833 0.0833 0.7500 (   144 PWs)   bands (ev):

    -2.3151  -0.4509   2.0302   3.8399

          k = 0.4167 0.2500 0.5833 (   145 PWs)   bands (ev):

    -3.3627  -0.0269   3.7306   4.7086

          k =-0.0833-0.9167 0.0833 (   142 PWs)   bands (ev):

    -2.0349  -0.7700   3.0874   3.4822

          k =-0.2500-0.7500-0.0833 (   143 PWs)   bands (ev):

    -2.9825   0.3558   2.8407   3.6326

          k =-0.0833-0.5833 0.0833 (   141 PWs)   bands (ev):

    -4.0666   1.9421   3.9137   4.1261

          k =-0.2500 0.2500 0.2500 (   150 PWs)   bands (ev):

    -4.8195   2.3851   5.5045   5.5045

          k =-0.4167 0.4167 0.0833 (   146 PWs)   bands (ev):

    -4.1201   1.4848   3.3754   5.3372

          k = 0.4167-0.4167 0.9167 (   141 PWs)   bands (ev):

    -2.9071   0.0533   2.2585   4.5427

          k = 0.2500-0.2500 0.7500 (   143 PWs)   bands (ev):

    -2.8632  -0.0240   2.7441   4.0569

          k =-0.2500 0.5833 0.2500 (   146 PWs)   bands (ev):

    -3.6919   0.6639   3.8635   4.4309

          k = 0.5833-0.2500 1.0833 (   143 PWs)   bands (ev):

    -2.6778  -0.0401   2.3551   3.6313

          k = 0.4167-0.0833 0.9167 (   146 PWs)   bands (ev):

    -1.8464  -0.7772   2.1789   2.9584

          k =-0.2500-1.0833 0.2500 (   142 PWs)   bands (ev):

    -2.0391  -0.6882   2.0521   3.8599

          k =-0.4167 0.4167 0.4167 (   147 PWs)   bands (ev):

    -3.6034  -0.1473   5.1153   5.1153

          k = 0.4167-0.4167 1.2500 (   145 PWs)   bands (ev):

    -2.9810  -0.4357   3.2994   4.6683

     highest occupied level (ev):     6.1274

!    total energy              =     -15.69647135 Ry
     estimated scf accuracy    <       0.00000012 Ry

     The total energy is the sum of the following terms:
     one-electron contribution =       4.82984195 Ry
     hartree contribution      =       1.07776581 Ry
     xc contribution           =      -4.80314953 Ry
     ewald contribution        =     -16.80092958 Ry

     convergence has been achieved in   4 iterations

     Writing output data file ./Si_exc1.save/

     init_run     :      0.05s CPU      0.05s WALL (       1 calls)
     electrons    :      0.13s CPU      0.20s WALL (       1 calls)

     Called by init_run:
     wfcinit      :      0.01s CPU      0.02s WALL (       1 calls)
     potinit      :      0.00s CPU      0.00s WALL (       1 calls)
     hinit0       :      0.03s CPU      0.03s WALL (       1 calls)

     Called by electrons:
     c_bands      :      0.10s CPU      0.11s WALL (       5 calls)
     sum_band     :      0.02s CPU      0.02s WALL (       5 calls)
     v_of_rho     :      0.01s CPU      0.01s WALL (       5 calls)
     mix_rho      :      0.00s CPU      0.00s WALL (       5 calls)

     Called by c_bands:
     init_us_2    :      0.01s CPU      0.01s WALL (     308 calls)
     cegterg      :      0.09s CPU      0.10s WALL (     140 calls)

     Called by *egterg:
     cdiaghg      :      0.01s CPU      0.01s WALL (     431 calls)
     h_psi        :      0.08s CPU      0.08s WALL (     487 calls)
     g_psi        :      0.00s CPU      0.00s WALL (     319 calls)

     Called by h_psi:
     h_psi:calbec :      0.00s CPU      0.00s WALL (     487 calls)
     vloc_psi     :      0.07s CPU      0.07s WALL (     487 calls)
     add_vuspsi   :      0.00s CPU      0.00s WALL (     487 calls)

     General routines
     calbec       :      0.00s CPU      0.00s WALL (     487 calls)
     fft          :      0.00s CPU      0.00s WALL (      50 calls)
     ffts         :      0.00s CPU      0.00s WALL (       5 calls)
     fftw         :      0.06s CPU      0.06s WALL (    4134 calls)

     Parallel routines

     PWSCF        :      0.22s CPU      0.34s WALL


   This run was terminated on:  16:11:43  18Sep2022            

=------------------------------------------------------------------------------=
   JOB DONE.
=------------------------------------------------------------------------------=
