
     Program PWSCF v.6.7MaX starts on 19Sep2022 at 17:37:28 

     This program is part of the open-source Quantum ESPRESSO suite
     for quantum simulation of materials; please cite
         "P. Giannozzi et al., J. Phys.:Condens. Matter 21 395502 (2009);
         "P. Giannozzi et al., J. Phys.:Condens. Matter 29 465901 (2017);
          URL http://www.quantum-espresso.org", 
     in publications or presentations arising from this work. More details at
     http://www.quantum-espresso.org/quote

     Parallel version (MPI), running on     1 processors

     MPI processes distributed on     1 nodes
     Waiting for input...
     Reading input from standard input

     Current dimensions of program PWSCF are:
     Max number of different atomic species (ntypx) = 10
     Max number of k-points (npk) =  40000
     Max angular momentum in pseudopotentials (lmaxx) =  3

     Subspace diagonalization in iterative solution of the eigenvalue problem:
     a serial algorithm will be used


     G-vector sticks info
     --------------------
     sticks:   dense  smooth     PW     G-vecs:    dense   smooth      PW
     Sum         361     361    121                 4573     4573     893



     bravais-lattice index     =            2
     lattice parameter (alat)  =      10.2600  a.u.
     unit-cell volume          =     270.0114 (a.u.)^3
     number of atoms/cell      =            2
     number of atomic types    =            1
     number of electrons       =         8.00
     number of Kohn-Sham states=            4
     kinetic-energy cutoff     =      25.0000  Ry
     charge density cutoff     =     100.0000  Ry
     scf convergence threshold =      1.0E-06
     mixing beta               =       0.7000
     number of iterations used =            8  plain     mixing
     Exchange-correlation=  SLA  PW   PBE  PBE
                           (   1   4   3   4   0   0   0)

     celldm(1)=  10.260000  celldm(2)=   0.000000  celldm(3)=   0.000000
     celldm(4)=   0.000000  celldm(5)=   0.000000  celldm(6)=   0.000000

     crystal axes: (cart. coord. in units of alat)
               a(1) = (  -0.500000   0.000000   0.500000 )  
               a(2) = (   0.000000   0.500000   0.500000 )  
               a(3) = (  -0.500000   0.500000   0.000000 )  

     reciprocal axes: (cart. coord. in units 2 pi/alat)
               b(1) = ( -1.000000 -1.000000  1.000000 )  
               b(2) = (  1.000000  1.000000  1.000000 )  
               b(3) = ( -1.000000  1.000000 -1.000000 )  


     PseudoPot. # 1 for Si read from file:
     ./Si.pbe-rrkj.UPF
     MD5 check sum: cf7ab5690cd9a85b22c4813f7e365554
     Pseudo is Norm-conserving, Zval =  4.0
     Generated by new atomic code, or converted to UPF format
     Using radial grid of  883 points,  3 beta functions with: 
                l(1) =   0
                l(2) =   0
                l(3) =   1

     atomic species   valence    mass     pseudopotential
        Si             4.00    28.08600     Si( 1.00)

     48 Sym. Ops., with inversion, found (24 have fractional translation)



   Cartesian axes

     site n.     atom                  positions (alat units)
         1           Si  tau(   1) = (   0.0000000   0.0000000   0.0000000  )
         2           Si  tau(   2) = (   0.2500000   0.2500000   0.2500000  )

     number of k points=    10
                       cart. coord. in units 2pi/alat
        k(    1) = (  -0.1250000   0.1250000   0.1250000), wk =   0.0625000
        k(    2) = (  -0.3750000   0.3750000  -0.1250000), wk =   0.1875000
        k(    3) = (   0.3750000  -0.3750000   0.6250000), wk =   0.1875000
        k(    4) = (   0.1250000  -0.1250000   0.3750000), wk =   0.1875000
        k(    5) = (  -0.1250000   0.6250000   0.1250000), wk =   0.1875000
        k(    6) = (   0.6250000  -0.1250000   0.8750000), wk =   0.3750000
        k(    7) = (   0.3750000   0.1250000   0.6250000), wk =   0.3750000
        k(    8) = (  -0.1250000  -0.8750000   0.1250000), wk =   0.1875000
        k(    9) = (  -0.3750000   0.3750000   0.3750000), wk =   0.0625000
        k(   10) = (   0.3750000  -0.3750000   1.1250000), wk =   0.1875000

     Dense  grid:     4573 G-vectors     FFT dimensions: (  24,  24,  24)

     Estimated max dynamical RAM per process >       3.60 MB

     Initial potential from superposition of free atoms

     starting charge    7.99889, renormalised to    8.00000
     Starting wfcs are    8 randomized atomic wfcs

     total cpu time spent up to now is        0.1 secs

     Self-consistent Calculation

     iteration #  1     ecut=    25.00 Ry     beta= 0.70
     Davidson diagonalization with overlap
     ethr =  1.00E-02,  avg # of iterations =  2.0

     Threshold (ethr) on eigenvalues was too large:
     Diagonalizing with lowered threshold

     Davidson diagonalization with overlap
     ethr =  5.98E-04,  avg # of iterations =  1.9

     total cpu time spent up to now is        0.2 secs

     total energy              =     -15.73849767 Ry
     estimated scf accuracy    <       0.05569231 Ry

     iteration #  2     ecut=    25.00 Ry     beta= 0.70
     Davidson diagonalization with overlap
     ethr =  6.96E-04,  avg # of iterations =  1.0

     total cpu time spent up to now is        0.2 secs

     total energy              =     -15.74032950 Ry
     estimated scf accuracy    <       0.00313640 Ry

     iteration #  3     ecut=    25.00 Ry     beta= 0.70
     Davidson diagonalization with overlap
     ethr =  3.92E-05,  avg # of iterations =  2.2

     total cpu time spent up to now is        0.3 secs

     total energy              =     -15.74096113 Ry
     estimated scf accuracy    <       0.00010047 Ry

     iteration #  4     ecut=    25.00 Ry     beta= 0.70
     Davidson diagonalization with overlap
     ethr =  1.26E-06,  avg # of iterations =  4.5

     total cpu time spent up to now is        0.3 secs

     total energy              =     -15.74102376 Ry
     estimated scf accuracy    <       0.00000782 Ry

     iteration #  5     ecut=    25.00 Ry     beta= 0.70
     Davidson diagonalization with overlap
     ethr =  9.78E-08,  avg # of iterations =  3.9

     total cpu time spent up to now is        0.4 secs

     End of self-consistent calculation

          k =-0.1250 0.1250 0.1250 (   567 PWs)   bands (ev):

    -5.4649   4.6584   5.9493   5.9493

          k =-0.3750 0.3750-0.1250 (   574 PWs)   bands (ev):

    -4.4183   1.6471   3.9385   5.4656

          k = 0.3750-0.3750 0.6250 (   571 PWs)   bands (ev):

    -3.2464  -0.4772   3.9729   4.6789

          k = 0.1250-0.1250 0.3750 (   569 PWs)   bands (ev):

    -4.9274   3.0460   4.9223   5.0059

          k =-0.1250 0.6250 0.1250 (   570 PWs)   bands (ev):

    -3.8768   1.3438   3.5762   4.0339

          k = 0.6250-0.1250 0.8750 (   566 PWs)   bands (ev):

    -2.1980  -0.6425   2.1856   3.2838

          k = 0.3750 0.1250 0.6250 (   570 PWs)   bands (ev):

    -3.4496   0.4385   2.9301   4.3138

          k =-0.1250-0.8750 0.1250 (   570 PWs)   bands (ev):

    -2.3768  -0.5391   2.8087   3.5597

          k =-0.3750 0.3750 0.3750 (   577 PWs)   bands (ev):

    -3.9737   0.3231   5.1534   5.1534

          k = 0.3750-0.3750 1.1250 (   570 PWs)   bands (ev):

    -2.7426  -0.3602   2.2573   4.3551

     highest occupied level (ev):     5.9493

!    total energy              =     -15.74102733 Ry
     estimated scf accuracy    <       0.00000023 Ry

     The total energy is the sum of the following terms:
     one-electron contribution =       4.77908703 Ry
     hartree contribution      =       1.09432917 Ry
     xc contribution           =      -4.81351393 Ry
     ewald contribution        =     -16.80092959 Ry

     convergence has been achieved in   5 iterations

     Writing output data file ./Si_exc1.save/

     init_run     :      0.08s CPU      0.09s WALL (       1 calls)
     electrons    :      0.27s CPU      0.32s WALL (       1 calls)

     Called by init_run:
     wfcinit      :      0.02s CPU      0.03s WALL (       1 calls)
     potinit      :      0.01s CPU      0.01s WALL (       1 calls)
     hinit0       :      0.05s CPU      0.05s WALL (       1 calls)

     Called by electrons:
     c_bands      :      0.19s CPU      0.20s WALL (       6 calls)
     sum_band     :      0.04s CPU      0.04s WALL (       6 calls)
     v_of_rho     :      0.04s CPU      0.04s WALL (       6 calls)
     mix_rho      :      0.00s CPU      0.00s WALL (       6 calls)

     Called by c_bands:
     init_us_2    :      0.01s CPU      0.01s WALL (     130 calls)
     cegterg      :      0.18s CPU      0.19s WALL (      60 calls)

     Called by *egterg:
     cdiaghg      :      0.00s CPU      0.01s WALL (     205 calls)
     h_psi        :      0.18s CPU      0.19s WALL (     225 calls)
     g_psi        :      0.00s CPU      0.00s WALL (     155 calls)

     Called by h_psi:
     h_psi:calbec :      0.00s CPU      0.00s WALL (     225 calls)
     vloc_psi     :      0.17s CPU      0.18s WALL (     225 calls)
     add_vuspsi   :      0.00s CPU      0.00s WALL (     225 calls)

     General routines
     calbec       :      0.00s CPU      0.00s WALL (     225 calls)
     fft          :      0.02s CPU      0.02s WALL (      60 calls)
     ffts         :      0.00s CPU      0.00s WALL (       6 calls)
     fftw         :      0.17s CPU      0.18s WALL (    1802 calls)

     Parallel routines

     PWSCF        :      0.38s CPU      0.48s WALL


   This run was terminated on:  17:37:29  19Sep2022            

=------------------------------------------------------------------------------=
   JOB DONE.
=------------------------------------------------------------------------------=
