
     Program PWSCF v.6.7MaX starts on 19Sep2022 at 17:37:29 

     This program is part of the open-source Quantum ESPRESSO suite
     for quantum simulation of materials; please cite
         "P. Giannozzi et al., J. Phys.:Condens. Matter 21 395502 (2009);
         "P. Giannozzi et al., J. Phys.:Condens. Matter 29 465901 (2017);
          URL http://www.quantum-espresso.org", 
     in publications or presentations arising from this work. More details at
     http://www.quantum-espresso.org/quote

     Parallel version (MPI), running on     1 processors

     MPI processes distributed on     1 nodes
     Waiting for input...
     Reading input from standard input

     Current dimensions of program PWSCF are:
     Max number of different atomic species (ntypx) = 10
     Max number of k-points (npk) =  40000
     Max angular momentum in pseudopotentials (lmaxx) =  3

     Subspace diagonalization in iterative solution of the eigenvalue problem:
     a serial algorithm will be used


     G-vector sticks info
     --------------------
     sticks:   dense  smooth     PW     G-vecs:    dense   smooth      PW
     Sum         361     361    121                 4573     4573     893



     bravais-lattice index     =            2
     lattice parameter (alat)  =      10.2600  a.u.
     unit-cell volume          =     270.0114 (a.u.)^3
     number of atoms/cell      =            2
     number of atomic types    =            1
     number of electrons       =         8.00
     number of Kohn-Sham states=            4
     kinetic-energy cutoff     =      25.0000  Ry
     charge density cutoff     =     100.0000  Ry
     scf convergence threshold =      1.0E-06
     mixing beta               =       0.7000
     number of iterations used =            8  plain     mixing
     Exchange-correlation=  SLA  PW   PBE  PBE
                           (   1   4   3   4   0   0   0)

     celldm(1)=  10.260000  celldm(2)=   0.000000  celldm(3)=   0.000000
     celldm(4)=   0.000000  celldm(5)=   0.000000  celldm(6)=   0.000000

     crystal axes: (cart. coord. in units of alat)
               a(1) = (  -0.500000   0.000000   0.500000 )  
               a(2) = (   0.000000   0.500000   0.500000 )  
               a(3) = (  -0.500000   0.500000   0.000000 )  

     reciprocal axes: (cart. coord. in units 2 pi/alat)
               b(1) = ( -1.000000 -1.000000  1.000000 )  
               b(2) = (  1.000000  1.000000  1.000000 )  
               b(3) = ( -1.000000  1.000000 -1.000000 )  


     PseudoPot. # 1 for Si read from file:
     ./Si.pbe-rrkj.UPF
     MD5 check sum: cf7ab5690cd9a85b22c4813f7e365554
     Pseudo is Norm-conserving, Zval =  4.0
     Generated by new atomic code, or converted to UPF format
     Using radial grid of  883 points,  3 beta functions with: 
                l(1) =   0
                l(2) =   0
                l(3) =   1

     atomic species   valence    mass     pseudopotential
        Si             4.00    28.08600     Si( 1.00)

     48 Sym. Ops., with inversion, found (24 have fractional translation)



   Cartesian axes

     site n.     atom                  positions (alat units)
         1           Si  tau(   1) = (   0.0000000   0.0000000   0.0000000  )
         2           Si  tau(   2) = (   0.2500000   0.2500000   0.2500000  )

     number of k points=    19
                       cart. coord. in units 2pi/alat
        k(    1) = (  -0.1000000   0.1000000   0.1000000), wk =   0.0320000
        k(    2) = (  -0.3000000   0.3000000  -0.1000000), wk =   0.0960000
        k(    3) = (   0.5000000  -0.5000000   0.7000000), wk =   0.0960000
        k(    4) = (   0.3000000  -0.3000000   0.5000000), wk =   0.0960000
        k(    5) = (   0.1000000  -0.1000000   0.3000000), wk =   0.0960000
        k(    6) = (  -0.1000000   0.5000000   0.1000000), wk =   0.0960000
        k(    7) = (   0.7000000  -0.3000000   0.9000000), wk =   0.1920000
        k(    8) = (   0.5000000  -0.1000000   0.7000000), wk =   0.1920000
        k(    9) = (   0.3000000   0.1000000   0.5000000), wk =   0.1920000
        k(   10) = (  -0.1000000  -1.1000000   0.1000000), wk =   0.0960000
        k(   11) = (  -0.3000000  -0.9000000  -0.1000000), wk =   0.1920000
        k(   12) = (  -0.5000000  -0.7000000  -0.3000000), wk =   0.0960000
        k(   13) = (  -0.1000000  -0.7000000   0.1000000), wk =   0.0960000
        k(   14) = (  -0.3000000   0.3000000   0.3000000), wk =   0.0320000
        k(   15) = (   0.5000000  -0.5000000   1.1000000), wk =   0.0960000
        k(   16) = (   0.3000000  -0.3000000   0.9000000), wk =   0.0960000
        k(   17) = (  -0.3000000  -1.3000000   0.3000000), wk =   0.0960000
        k(   18) = (  -0.5000000  -1.1000000   0.1000000), wk =   0.0960000
        k(   19) = (   0.5000000  -0.5000000  -0.5000000), wk =   0.0160000

     Dense  grid:     4573 G-vectors     FFT dimensions: (  24,  24,  24)

     Estimated max dynamical RAM per process >       3.91 MB

     Initial potential from superposition of free atoms

     starting charge    7.99889, renormalised to    8.00000
     Starting wfcs are    8 randomized atomic wfcs

     total cpu time spent up to now is        0.1 secs

     Self-consistent Calculation

     iteration #  1     ecut=    25.00 Ry     beta= 0.70
     Davidson diagonalization with overlap
     ethr =  1.00E-02,  avg # of iterations =  2.0

     Threshold (ethr) on eigenvalues was too large:
     Diagonalizing with lowered threshold

     Davidson diagonalization with overlap
     ethr =  5.94E-04,  avg # of iterations =  2.0

     total cpu time spent up to now is        0.3 secs

     total energy              =     -15.73862626 Ry
     estimated scf accuracy    <       0.05579756 Ry

     iteration #  2     ecut=    25.00 Ry     beta= 0.70
     Davidson diagonalization with overlap
     ethr =  6.97E-04,  avg # of iterations =  1.0

     total cpu time spent up to now is        0.3 secs

     total energy              =     -15.74049461 Ry
     estimated scf accuracy    <       0.00310798 Ry

     iteration #  3     ecut=    25.00 Ry     beta= 0.70
     Davidson diagonalization with overlap
     ethr =  3.88E-05,  avg # of iterations =  2.1

     total cpu time spent up to now is        0.4 secs

     total energy              =     -15.74110883 Ry
     estimated scf accuracy    <       0.00009589 Ry

     iteration #  4     ecut=    25.00 Ry     beta= 0.70
     Davidson diagonalization with overlap
     ethr =  1.20E-06,  avg # of iterations =  4.3

     total cpu time spent up to now is        0.5 secs

     total energy              =     -15.74117713 Ry
     estimated scf accuracy    <       0.00000428 Ry

     iteration #  5     ecut=    25.00 Ry     beta= 0.70
     Davidson diagonalization with overlap
     ethr =  5.35E-08,  avg # of iterations =  4.6

     total cpu time spent up to now is        0.6 secs

     End of self-consistent calculation

          k =-0.1000 0.1000 0.1000 (   555 PWs)   bands (ev):

    -5.5389   5.1072   6.0386   6.0386

          k =-0.3000 0.3000-0.1000 (   570 PWs)   bands (ev):

    -4.8560   2.6266   4.4760   5.7339

          k = 0.5000-0.5000 0.7000 (   575 PWs)   bands (ev):

    -3.4474  -0.3045   4.1447   4.9942

          k = 0.3000-0.3000 0.5000 (   575 PWs)   bands (ev):

    -3.9231   0.4853   4.5639   4.7618

          k = 0.1000-0.1000 0.3000 (   565 PWs)   bands (ev):

    -5.1924   3.8137   5.2277   5.4046

          k =-0.1000 0.5000 0.1000 (   570 PWs)   bands (ev):

    -4.5084   2.4078   4.2506   4.4043

          k = 0.7000-0.3000 0.9000 (   570 PWs)   bands (ev):

    -3.2492   0.4109   2.8216   3.8279

          k = 0.5000-0.1000 0.7000 (   569 PWs)   bands (ev):

    -2.7985  -0.1945   2.2631   4.0125

          k = 0.3000 0.1000 0.5000 (   571 PWs)   bands (ev):

    -4.1969   1.4927   3.5791   4.8954

          k =-0.1000-1.1000 0.1000 (   568 PWs)   bands (ev):

    -2.2283  -0.7279   2.9625   3.4985

          k =-0.3000-0.9000-0.1000 (   574 PWs)   bands (ev):

    -2.0988  -0.7475   2.3233   3.2599

          k =-0.5000-0.7000-0.3000 (   564 PWs)   bands (ev):

    -2.9862  -0.5517   3.2932   4.4062

          k =-0.1000-0.7000 0.1000 (   573 PWs)   bands (ev):

    -3.5074   0.8658   3.3879   3.8070

          k =-0.3000 0.3000 0.3000 (   568 PWs)   bands (ev):

    -4.5363   1.4734   5.3246   5.3246

          k = 0.5000-0.5000 1.1000 (   570 PWs)   bands (ev):

    -3.6012   0.5635   2.7964   4.9236

          k = 0.3000-0.3000 0.9000 (   571 PWs)   bands (ev):

    -2.3335  -0.6187   2.0071   4.0290

          k =-0.3000-1.3000 0.3000 (   567 PWs)   bands (ev):

    -3.0987  -0.2170   3.1187   4.2886

          k =-0.5000-1.1000 0.1000 (   566 PWs)   bands (ev):

    -2.0034  -0.7807   2.1076   2.9995

          k = 0.5000-0.5000-0.5000 (   568 PWs)   bands (ev):

    -3.3327  -0.7026   5.0409   5.0409

     highest occupied level (ev):     6.0386

!    total energy              =     -15.74118053 Ry
     estimated scf accuracy    <       0.00000023 Ry

     The total energy is the sum of the following terms:
     one-electron contribution =       4.77920047 Ry
     hartree contribution      =       1.09381571 Ry
     xc contribution           =      -4.81326712 Ry
     ewald contribution        =     -16.80092959 Ry

     convergence has been achieved in   5 iterations

     Writing output data file ./Si_exc1.save/

     init_run     :      0.11s CPU      0.11s WALL (       1 calls)
     electrons    :      0.47s CPU      0.49s WALL (       1 calls)

     Called by init_run:
     wfcinit      :      0.04s CPU      0.05s WALL (       1 calls)
     potinit      :      0.01s CPU      0.01s WALL (       1 calls)
     hinit0       :      0.05s CPU      0.05s WALL (       1 calls)

     Called by electrons:
     c_bands      :      0.36s CPU      0.38s WALL (       6 calls)
     sum_band     :      0.07s CPU      0.07s WALL (       6 calls)
     v_of_rho     :      0.04s CPU      0.04s WALL (       6 calls)
     mix_rho      :      0.00s CPU      0.00s WALL (       6 calls)

     Called by c_bands:
     init_us_2    :      0.02s CPU      0.02s WALL (     247 calls)
     cegterg      :      0.35s CPU      0.36s WALL (     114 calls)

     Called by *egterg:
     cdiaghg      :      0.01s CPU      0.01s WALL (     398 calls)
     h_psi        :      0.34s CPU      0.36s WALL (     436 calls)
     g_psi        :      0.00s CPU      0.00s WALL (     303 calls)

     Called by h_psi:
     h_psi:calbec :      0.01s CPU      0.01s WALL (     436 calls)
     vloc_psi     :      0.33s CPU      0.34s WALL (     436 calls)
     add_vuspsi   :      0.01s CPU      0.01s WALL (     436 calls)

     General routines
     calbec       :      0.01s CPU      0.01s WALL (     436 calls)
     fft          :      0.02s CPU      0.02s WALL (      60 calls)
     ffts         :      0.00s CPU      0.00s WALL (       6 calls)
     fftw         :      0.33s CPU      0.34s WALL (    3510 calls)

     Parallel routines

     PWSCF        :      0.59s CPU      0.64s WALL


   This run was terminated on:  17:37:30  19Sep2022            

=------------------------------------------------------------------------------=
   JOB DONE.
=------------------------------------------------------------------------------=
