
     Program PWSCF v.6.7MaX starts on 19Sep2022 at 17:37:31 

     This program is part of the open-source Quantum ESPRESSO suite
     for quantum simulation of materials; please cite
         "P. Giannozzi et al., J. Phys.:Condens. Matter 21 395502 (2009);
         "P. Giannozzi et al., J. Phys.:Condens. Matter 29 465901 (2017);
          URL http://www.quantum-espresso.org", 
     in publications or presentations arising from this work. More details at
     http://www.quantum-espresso.org/quote

     Parallel version (MPI), running on     1 processors

     MPI processes distributed on     1 nodes
     Waiting for input...
     Reading input from standard input

     Current dimensions of program PWSCF are:
     Max number of different atomic species (ntypx) = 10
     Max number of k-points (npk) =  40000
     Max angular momentum in pseudopotentials (lmaxx) =  3

     Subspace diagonalization in iterative solution of the eigenvalue problem:
     a serial algorithm will be used


     G-vector sticks info
     --------------------
     sticks:   dense  smooth     PW     G-vecs:    dense   smooth      PW
     Sum         361     361    121                 4573     4573     941



     bravais-lattice index     =            2
     lattice parameter (alat)  =      10.2600  a.u.
     unit-cell volume          =     270.0114 (a.u.)^3
     number of atoms/cell      =            2
     number of atomic types    =            1
     number of electrons       =         8.00
     number of Kohn-Sham states=            4
     kinetic-energy cutoff     =      25.0000  Ry
     charge density cutoff     =     100.0000  Ry
     scf convergence threshold =      1.0E-06
     mixing beta               =       0.7000
     number of iterations used =            8  plain     mixing
     Exchange-correlation=  SLA  PW   PBE  PBE
                           (   1   4   3   4   0   0   0)

     celldm(1)=  10.260000  celldm(2)=   0.000000  celldm(3)=   0.000000
     celldm(4)=   0.000000  celldm(5)=   0.000000  celldm(6)=   0.000000

     crystal axes: (cart. coord. in units of alat)
               a(1) = (  -0.500000   0.000000   0.500000 )  
               a(2) = (   0.000000   0.500000   0.500000 )  
               a(3) = (  -0.500000   0.500000   0.000000 )  

     reciprocal axes: (cart. coord. in units 2 pi/alat)
               b(1) = ( -1.000000 -1.000000  1.000000 )  
               b(2) = (  1.000000  1.000000  1.000000 )  
               b(3) = ( -1.000000  1.000000 -1.000000 )  


     PseudoPot. # 1 for Si read from file:
     ./Si.pbe-rrkj.UPF
     MD5 check sum: cf7ab5690cd9a85b22c4813f7e365554
     Pseudo is Norm-conserving, Zval =  4.0
     Generated by new atomic code, or converted to UPF format
     Using radial grid of  883 points,  3 beta functions with: 
                l(1) =   0
                l(2) =   0
                l(3) =   1

     atomic species   valence    mass     pseudopotential
        Si             4.00    28.08600     Si( 1.00)

     48 Sym. Ops., with inversion, found (24 have fractional translation)



   Cartesian axes

     site n.     atom                  positions (alat units)
         1           Si  tau(   1) = (   0.0000000   0.0000000   0.0000000  )
         2           Si  tau(   2) = (   0.2500000   0.2500000   0.2500000  )

     number of k points=    44
                       cart. coord. in units 2pi/alat
        k(    1) = (  -0.0714286   0.0714286   0.0714286), wk =   0.0116618
        k(    2) = (  -0.2142857   0.2142857  -0.0714286), wk =   0.0349854
        k(    3) = (  -0.3571429   0.3571429  -0.2142857), wk =   0.0349854
        k(    4) = (   0.5000000  -0.5000000   0.6428571), wk =   0.0349854
        k(    5) = (   0.3571429  -0.3571429   0.5000000), wk =   0.0349854
        k(    6) = (   0.2142857  -0.2142857   0.3571429), wk =   0.0349854
        k(    7) = (   0.0714286  -0.0714286   0.2142857), wk =   0.0349854
        k(    8) = (  -0.0714286   0.3571429   0.0714286), wk =   0.0349854
        k(    9) = (  -0.2142857   0.5000000  -0.0714286), wk =   0.0699708
        k(   10) = (   0.6428571  -0.3571429   0.7857143), wk =   0.0699708
        k(   11) = (   0.5000000  -0.2142857   0.6428571), wk =   0.0699708
        k(   12) = (   0.3571429  -0.0714286   0.5000000), wk =   0.0699708
        k(   13) = (   0.2142857   0.0714286   0.3571429), wk =   0.0699708
        k(   14) = (  -0.0714286   0.6428571   0.0714286), wk =   0.0349854
        k(   15) = (   0.7857143  -0.2142857   0.9285714), wk =   0.0699708
        k(   16) = (   0.6428571  -0.0714286   0.7857143), wk =   0.0699708
        k(   17) = (   0.5000000   0.0714286   0.6428571), wk =   0.0699708
        k(   18) = (   0.3571429   0.2142857   0.5000000), wk =   0.0699708
        k(   19) = (  -0.0714286  -1.0714286   0.0714286), wk =   0.0349854
        k(   20) = (  -0.2142857  -0.9285714  -0.0714286), wk =   0.0699708
        k(   21) = (  -0.3571429  -0.7857143  -0.2142857), wk =   0.0699708
        k(   22) = (  -0.5000000  -0.6428571  -0.3571429), wk =   0.0349854
        k(   23) = (  -0.0714286  -0.7857143   0.0714286), wk =   0.0349854
        k(   24) = (  -0.2142857  -0.6428571  -0.0714286), wk =   0.0699708
        k(   25) = (  -0.0714286  -0.5000000   0.0714286), wk =   0.0349854
        k(   26) = (  -0.2142857   0.2142857   0.2142857), wk =   0.0116618
        k(   27) = (  -0.3571429   0.3571429   0.0714286), wk =   0.0349854
        k(   28) = (   0.5000000  -0.5000000   0.9285714), wk =   0.0349854
        k(   29) = (   0.3571429  -0.3571429   0.7857143), wk =   0.0349854
        k(   30) = (   0.2142857  -0.2142857   0.6428571), wk =   0.0349854
        k(   31) = (  -0.2142857   0.5000000   0.2142857), wk =   0.0349854
        k(   32) = (   0.6428571  -0.3571429   1.0714286), wk =   0.0699708
        k(   33) = (   0.5000000  -0.2142857   0.9285714), wk =   0.0699708
        k(   34) = (   0.3571429  -0.0714286   0.7857143), wk =   0.0699708
        k(   35) = (  -0.2142857  -1.2142857   0.2142857), wk =   0.0349854
        k(   36) = (  -0.3571429  -1.0714286   0.0714286), wk =   0.0699708
        k(   37) = (  -0.5000000  -0.9285714  -0.0714286), wk =   0.0349854
        k(   38) = (  -0.2142857  -0.9285714   0.2142857), wk =   0.0349854
        k(   39) = (  -0.3571429   0.3571429   0.3571429), wk =   0.0116618
        k(   40) = (   0.5000000  -0.5000000   1.2142857), wk =   0.0349854
        k(   41) = (   0.3571429  -0.3571429   1.0714286), wk =   0.0349854
        k(   42) = (  -0.3571429  -1.3571429   0.3571429), wk =   0.0349854
        k(   43) = (  -0.5000000  -1.2142857   0.2142857), wk =   0.0349854
        k(   44) = (   0.5000000  -0.5000000  -0.5000000), wk =   0.0058309

     Dense  grid:     4573 G-vectors     FFT dimensions: (  24,  24,  24)

     Estimated max dynamical RAM per process >       4.78 MB

     Initial potential from superposition of free atoms

     starting charge    7.99889, renormalised to    8.00000
     Starting wfcs are    8 randomized atomic wfcs

     total cpu time spent up to now is        0.2 secs

     Self-consistent Calculation

     iteration #  1     ecut=    25.00 Ry     beta= 0.70
     Davidson diagonalization with overlap
     ethr =  1.00E-02,  avg # of iterations =  2.0

     Threshold (ethr) on eigenvalues was too large:
     Diagonalizing with lowered threshold

     Davidson diagonalization with overlap
     ethr =  5.94E-04,  avg # of iterations =  1.9

     total cpu time spent up to now is        0.5 secs

     total energy              =     -15.73862705 Ry
     estimated scf accuracy    <       0.05569692 Ry

     iteration #  2     ecut=    25.00 Ry     beta= 0.70
     Davidson diagonalization with overlap
     ethr =  6.96E-04,  avg # of iterations =  1.0

     total cpu time spent up to now is        0.6 secs

     total energy              =     -15.74050785 Ry
     estimated scf accuracy    <       0.00309762 Ry

     iteration #  3     ecut=    25.00 Ry     beta= 0.70
     Davidson diagonalization with overlap
     ethr =  3.87E-05,  avg # of iterations =  2.0

     total cpu time spent up to now is        0.8 secs

     total energy              =     -15.74112865 Ry
     estimated scf accuracy    <       0.00009108 Ry

     iteration #  4     ecut=    25.00 Ry     beta= 0.70
     Davidson diagonalization with overlap
     ethr =  1.14E-06,  avg # of iterations =  4.8

     total cpu time spent up to now is        1.0 secs

     total energy              =     -15.74120819 Ry
     estimated scf accuracy    <       0.00000269 Ry

     iteration #  5     ecut=    25.00 Ry     beta= 0.70
     Davidson diagonalization with overlap
     ethr =  3.37E-08,  avg # of iterations =  4.5

     total cpu time spent up to now is        1.3 secs

     End of self-consistent calculation

          k =-0.0714 0.0714 0.0714 (   555 PWs)   bands (ev):

    -5.6033   5.5811   6.1278   6.1278

          k =-0.2143 0.2143-0.0714 (   563 PWs)   bands (ev):

    -5.2501   3.8338   5.1331   5.9751

          k =-0.3571 0.3571-0.2143 (   574 PWs)   bands (ev):

    -4.4105   1.3357   4.6391   5.4311

          k = 0.5000-0.5000 0.6429 (   575 PWs)   bands (ev):

    -3.3980  -0.4918   4.5231   5.0147

          k = 0.3571-0.3571 0.5000 (   576 PWs)   bands (ev):

    -3.6944  -0.0312   4.7494   4.8810

          k = 0.2143-0.2143 0.3571 (   572 PWs)   bands (ev):

    -4.7362   2.1363   5.0861   5.2462

          k = 0.0714-0.0714 0.2143 (   564 PWs)   bands (ev):

    -5.4255   4.7029   5.6019   5.7885

          k =-0.0714 0.3571 0.0714 (   567 PWs)   bands (ev):

    -5.0721   3.6877   4.9585   5.0217

          k =-0.2143 0.5000-0.0714 (   569 PWs)   bands (ev):

    -4.3865   2.0217   3.8246   4.7053

          k = 0.6429-0.3571 0.7857 (   570 PWs)   bands (ev):

    -3.3455   0.0752   3.2892   4.3190

          k = 0.5000-0.2143 0.6429 (   569 PWs)   bands (ev):

    -3.0527  -0.3526   3.0288   4.4484

          k = 0.3571-0.0714 0.5000 (   570 PWs)   bands (ev):

    -4.0702   1.3306   3.2069   4.9934

          k = 0.2143 0.0714 0.3571 (   567 PWs)   bands (ev):

    -4.9019   2.9247   4.4612   5.4959

          k =-0.0714 0.6429 0.0714 (   568 PWs)   bands (ev):

    -3.8595   1.4044   3.7098   3.9189

          k = 0.7857-0.2143 0.9286 (   573 PWs)   bands (ev):

    -2.8996   0.0906   2.8643   3.5154

          k = 0.6429-0.0714 0.7857 (   566 PWs)   bands (ev):

    -2.1601  -0.7176   1.9641   3.7014

          k = 0.5000 0.0714 0.6429 (   565 PWs)   bands (ev):

    -3.0417   0.0786   2.2652   4.3186

          k = 0.3571 0.2143 0.5000 (   571 PWs)   bands (ev):

    -3.9377   0.6425   4.0242   4.9560

          k =-0.0714-1.0714 0.0714 (   576 PWs)   bands (ev):

    -2.0445  -0.9557   3.1412   3.4450

          k =-0.2143-0.9286-0.0714 (   575 PWs)   bands (ev):

    -1.9740  -0.9380   2.6406   3.2894

          k =-0.3571-0.7857-0.2143 (   568 PWs)   bands (ev):

    -2.6961  -0.3792   2.5008   3.8973

          k =-0.5000-0.6429-0.3571 (   572 PWs)   bands (ev):

    -3.1555  -0.6152   3.9201   4.7091

          k =-0.0714-0.7857 0.0714 (   575 PWs)   bands (ev):

    -3.0194   0.2077   3.3300   3.6044

          k =-0.2143-0.6429-0.0714 (   573 PWs)   bands (ev):

    -3.7137   1.0876   3.2785   3.9917

          k =-0.0714-0.5000 0.0714 (   570 PWs)   bands (ev):

    -4.5476   2.5808   4.2816   4.3780

          k =-0.2143 0.2143 0.2143 (   564 PWs)   bands (ev):

    -5.0776   2.9895   5.6050   5.6050

          k =-0.3571 0.3571 0.0714 (   571 PWs)   bands (ev):

    -4.5651   2.1049   3.8046   5.5619

          k = 0.5000-0.5000 0.9286 (   566 PWs)   bands (ev):

    -3.6130   0.6696   2.6581   4.9176

          k = 0.3571-0.3571 0.7857 (   570 PWs)   bands (ev):

    -2.8071  -0.5160   2.7232   4.3649

          k = 0.2143-0.2143 0.6429 (   566 PWs)   bands (ev):

    -3.5839   0.6305   3.3574   4.1641

          k =-0.2143 0.5000 0.2143 (   573 PWs)   bands (ev):

    -4.2335   1.3569   4.3318   4.5803

          k = 0.6429-0.3571 1.0714 (   570 PWs)   bands (ev):

    -3.4327   0.5950   2.7357   4.1456

          k = 0.5000-0.2143 0.9286 (   570 PWs)   bands (ev):

    -2.4071  -0.4519   2.0836   3.4844

          k = 0.3571-0.0714 0.7857 (   567 PWs)   bands (ev):

    -2.6800  -0.1485   2.4193   3.3924

          k =-0.2143-1.2143 0.2143 (   568 PWs)   bands (ev):

    -2.8162  -0.1093   2.5753   3.8730

          k =-0.3571-1.0714 0.0714 (   570 PWs)   bands (ev):

    -1.8743  -0.9255   2.2664   2.9591

          k =-0.5000-0.9286-0.0714 (   574 PWs)   bands (ev):

    -1.8242  -0.9252   2.1385   2.8057

          k =-0.2143-0.9286 0.2143 (   569 PWs)   bands (ev):

    -2.0168  -0.8771   2.1524   3.7240

          k =-0.3571 0.3571 0.3571 (   571 PWs)   bands (ev):

    -4.1114   0.5750   5.1861   5.1861

          k = 0.5000-0.5000 1.2143 (   575 PWs)   bands (ev):

    -3.5250   0.0496   3.5338   4.9595

          k = 0.3571-0.3571 1.0714 (   569 PWs)   bands (ev):

    -2.5897  -0.3726   1.9795   4.2458

          k =-0.3571-1.3571 0.3571 (   571 PWs)   bands (ev):

    -3.2198  -0.4178   3.7557   4.5880

          k =-0.5000-1.2143 0.2143 (   568 PWs)   bands (ev):

    -2.6347  -0.5069   2.5136   3.8300

          k = 0.5000-0.5000-0.5000 (   568 PWs)   bands (ev):

    -3.3331  -0.7029   5.0404   5.0404

     highest occupied level (ev):     6.1278

!    total energy              =     -15.74121058 Ry
     estimated scf accuracy    <       0.00000016 Ry

     The total energy is the sum of the following terms:
     one-electron contribution =       4.77922539 Ry
     hartree contribution      =       1.09370406 Ry
     xc contribution           =      -4.81321044 Ry
     ewald contribution        =     -16.80092959 Ry

     convergence has been achieved in   5 iterations

     Writing output data file ./Si_exc1.save/

     init_run     :      0.16s CPU      0.17s WALL (       1 calls)
     electrons    :      1.08s CPU      1.12s WALL (       1 calls)

     Called by init_run:
     wfcinit      :      0.11s CPU      0.11s WALL (       1 calls)
     potinit      :      0.01s CPU      0.01s WALL (       1 calls)
     hinit0       :      0.05s CPU      0.05s WALL (       1 calls)

     Called by electrons:
     c_bands      :      0.89s CPU      0.89s WALL (       6 calls)
     sum_band     :      0.15s CPU      0.15s WALL (       6 calls)
     v_of_rho     :      0.04s CPU      0.04s WALL (       6 calls)
     mix_rho      :      0.00s CPU      0.00s WALL (       6 calls)

     Called by c_bands:
     init_us_2    :      0.06s CPU      0.06s WALL (     572 calls)
     cegterg      :      0.85s CPU      0.85s WALL (     264 calls)

     Called by *egterg:
     cdiaghg      :      0.02s CPU      0.02s WALL (     936 calls)
     h_psi        :      0.84s CPU      0.84s WALL (    1024 calls)
     g_psi        :      0.01s CPU      0.01s WALL (     716 calls)

     Called by h_psi:
     h_psi:calbec :      0.02s CPU      0.02s WALL (    1024 calls)
     vloc_psi     :      0.79s CPU      0.80s WALL (    1024 calls)
     add_vuspsi   :      0.02s CPU      0.02s WALL (    1024 calls)

     General routines
     calbec       :      0.02s CPU      0.02s WALL (    1024 calls)
     fft          :      0.02s CPU      0.02s WALL (      60 calls)
     ffts         :      0.00s CPU      0.00s WALL (       6 calls)
     fftw         :      0.79s CPU      0.79s WALL (    8204 calls)

     Parallel routines

     PWSCF        :      1.29s CPU      1.35s WALL


   This run was terminated on:  17:37:32  19Sep2022            

=------------------------------------------------------------------------------=
   JOB DONE.
=------------------------------------------------------------------------------=
