
     Program PWSCF v.6.7MaX starts on 19Sep2022 at 17: 4:50 

     This program is part of the open-source Quantum ESPRESSO suite
     for quantum simulation of materials; please cite
         "P. Giannozzi et al., J. Phys.:Condens. Matter 21 395502 (2009);
         "P. Giannozzi et al., J. Phys.:Condens. Matter 29 465901 (2017);
          URL http://www.quantum-espresso.org", 
     in publications or presentations arising from this work. More details at
     http://www.quantum-espresso.org/quote

     Parallel version (MPI), running on     1 processors

     MPI processes distributed on     1 nodes
     Waiting for input...
     Reading input from standard input

     Current dimensions of program PWSCF are:
     Max number of different atomic species (ntypx) = 10
     Max number of k-points (npk) =  40000
     Max angular momentum in pseudopotentials (lmaxx) =  3

     Subspace diagonalization in iterative solution of the eigenvalue problem:
     a serial algorithm will be used


     G-vector sticks info
     --------------------
     sticks:   dense  smooth     PW     G-vecs:    dense   smooth      PW
     Sum         361     361    121                 4573     4573     941



     bravais-lattice index     =            2
     lattice parameter (alat)  =      10.2600  a.u.
     unit-cell volume          =     270.0114 (a.u.)^3
     number of atoms/cell      =            2
     number of atomic types    =            1
     number of electrons       =         8.00
     number of Kohn-Sham states=            4
     kinetic-energy cutoff     =      25.0000  Ry
     charge density cutoff     =     100.0000  Ry
     scf convergence threshold =      1.0E-06
     mixing beta               =       0.7000
     number of iterations used =            8  plain     mixing
     Exchange-correlation=  SLA  PW   PBE  PBE
                           (   1   4   3   4   0   0   0)

     celldm(1)=  10.260000  celldm(2)=   0.000000  celldm(3)=   0.000000
     celldm(4)=   0.000000  celldm(5)=   0.000000  celldm(6)=   0.000000

     crystal axes: (cart. coord. in units of alat)
               a(1) = (  -0.500000   0.000000   0.500000 )  
               a(2) = (   0.000000   0.500000   0.500000 )  
               a(3) = (  -0.500000   0.500000   0.000000 )  

     reciprocal axes: (cart. coord. in units 2 pi/alat)
               b(1) = ( -1.000000 -1.000000  1.000000 )  
               b(2) = (  1.000000  1.000000  1.000000 )  
               b(3) = ( -1.000000  1.000000 -1.000000 )  


     PseudoPot. # 1 for Si read from file:
     ./Si.pbe-rrkj.UPF
     MD5 check sum: cf7ab5690cd9a85b22c4813f7e365554
     Pseudo is Norm-conserving, Zval =  4.0
     Generated by new atomic code, or converted to UPF format
     Using radial grid of  883 points,  3 beta functions with: 
                l(1) =   0
                l(2) =   0
                l(3) =   1

     atomic species   valence    mass     pseudopotential
        Si             4.00    28.08600     Si( 1.00)

     48 Sym. Ops., with inversion, found (24 have fractional translation)



   Cartesian axes

     site n.     atom                  positions (alat units)
         1           Si  tau(   1) = (   0.0000000   0.0000000   0.0000000  )
         2           Si  tau(   2) = (   0.2500000   0.2500000   0.2500000  )

     number of k points=    60
                       cart. coord. in units 2pi/alat
        k(    1) = (  -0.0625000   0.0625000   0.0625000), wk =   0.0078125
        k(    2) = (  -0.1875000   0.1875000  -0.0625000), wk =   0.0234375
        k(    3) = (  -0.3125000   0.3125000  -0.1875000), wk =   0.0234375
        k(    4) = (  -0.4375000   0.4375000  -0.3125000), wk =   0.0234375
        k(    5) = (   0.4375000  -0.4375000   0.5625000), wk =   0.0234375
        k(    6) = (   0.3125000  -0.3125000   0.4375000), wk =   0.0234375
        k(    7) = (   0.1875000  -0.1875000   0.3125000), wk =   0.0234375
        k(    8) = (   0.0625000  -0.0625000   0.1875000), wk =   0.0234375
        k(    9) = (  -0.0625000   0.3125000   0.0625000), wk =   0.0234375
        k(   10) = (  -0.1875000   0.4375000  -0.0625000), wk =   0.0468750
        k(   11) = (  -0.3125000   0.5625000  -0.1875000), wk =   0.0468750
        k(   12) = (   0.5625000  -0.3125000   0.6875000), wk =   0.0468750
        k(   13) = (   0.4375000  -0.1875000   0.5625000), wk =   0.0468750
        k(   14) = (   0.3125000  -0.0625000   0.4375000), wk =   0.0468750
        k(   15) = (   0.1875000   0.0625000   0.3125000), wk =   0.0468750
        k(   16) = (  -0.0625000   0.5625000   0.0625000), wk =   0.0234375
        k(   17) = (  -0.1875000   0.6875000  -0.0625000), wk =   0.0468750
        k(   18) = (   0.6875000  -0.1875000   0.8125000), wk =   0.0468750
        k(   19) = (   0.5625000  -0.0625000   0.6875000), wk =   0.0468750
        k(   20) = (   0.4375000   0.0625000   0.5625000), wk =   0.0468750
        k(   21) = (   0.3125000   0.1875000   0.4375000), wk =   0.0468750
        k(   22) = (  -0.0625000   0.8125000   0.0625000), wk =   0.0234375
        k(   23) = (   0.8125000  -0.0625000   0.9375000), wk =   0.0468750
        k(   24) = (   0.6875000   0.0625000   0.8125000), wk =   0.0468750
        k(   25) = (   0.5625000   0.1875000   0.6875000), wk =   0.0468750
        k(   26) = (   0.4375000   0.3125000   0.5625000), wk =   0.0468750
        k(   27) = (  -0.0625000  -0.9375000   0.0625000), wk =   0.0234375
        k(   28) = (  -0.1875000  -0.8125000  -0.0625000), wk =   0.0468750
        k(   29) = (  -0.3125000  -0.6875000  -0.1875000), wk =   0.0468750
        k(   30) = (  -0.0625000  -0.6875000   0.0625000), wk =   0.0234375
        k(   31) = (  -0.1875000  -0.5625000  -0.0625000), wk =   0.0468750
        k(   32) = (  -0.0625000  -0.4375000   0.0625000), wk =   0.0234375
        k(   33) = (  -0.1875000   0.1875000   0.1875000), wk =   0.0078125
        k(   34) = (  -0.3125000   0.3125000   0.0625000), wk =   0.0234375
        k(   35) = (  -0.4375000   0.4375000  -0.0625000), wk =   0.0234375
        k(   36) = (   0.4375000  -0.4375000   0.8125000), wk =   0.0234375
        k(   37) = (   0.3125000  -0.3125000   0.6875000), wk =   0.0234375
        k(   38) = (   0.1875000  -0.1875000   0.5625000), wk =   0.0234375
        k(   39) = (  -0.1875000   0.4375000   0.1875000), wk =   0.0234375
        k(   40) = (  -0.3125000   0.5625000   0.0625000), wk =   0.0468750
        k(   41) = (   0.5625000  -0.3125000   0.9375000), wk =   0.0468750
        k(   42) = (   0.4375000  -0.1875000   0.8125000), wk =   0.0468750
        k(   43) = (   0.3125000  -0.0625000   0.6875000), wk =   0.0468750
        k(   44) = (  -0.1875000   0.6875000   0.1875000), wk =   0.0234375
        k(   45) = (   0.6875000  -0.1875000   1.0625000), wk =   0.0468750
        k(   46) = (   0.5625000  -0.0625000   0.9375000), wk =   0.0468750
        k(   47) = (   0.4375000   0.0625000   0.8125000), wk =   0.0468750
        k(   48) = (  -0.1875000  -1.0625000   0.1875000), wk =   0.0234375
        k(   49) = (  -0.3125000  -0.9375000   0.0625000), wk =   0.0468750
        k(   50) = (  -0.1875000  -0.8125000   0.1875000), wk =   0.0234375
        k(   51) = (  -0.3125000   0.3125000   0.3125000), wk =   0.0078125
        k(   52) = (  -0.4375000   0.4375000   0.1875000), wk =   0.0234375
        k(   53) = (   0.4375000  -0.4375000   1.0625000), wk =   0.0234375
        k(   54) = (   0.3125000  -0.3125000   0.9375000), wk =   0.0234375
        k(   55) = (  -0.3125000   0.5625000   0.3125000), wk =   0.0234375
        k(   56) = (   0.5625000  -0.3125000   1.1875000), wk =   0.0468750
        k(   57) = (   0.4375000  -0.1875000   1.0625000), wk =   0.0468750
        k(   58) = (  -0.3125000  -1.1875000   0.3125000), wk =   0.0234375
        k(   59) = (  -0.4375000   0.4375000   0.4375000), wk =   0.0078125
        k(   60) = (   0.4375000  -0.4375000   1.3125000), wk =   0.0234375

     Dense  grid:     4573 G-vectors     FFT dimensions: (  24,  24,  24)

     Estimated max dynamical RAM per process >       5.34 MB

     Initial potential from superposition of free atoms

     starting charge    7.99889, renormalised to    8.00000
     Starting wfcs are    8 randomized atomic wfcs

     total cpu time spent up to now is        0.2 secs

     Self-consistent Calculation

     iteration #  1     ecut=    25.00 Ry     beta= 0.70
     Davidson diagonalization with overlap
     ethr =  1.00E-02,  avg # of iterations =  2.0

     Threshold (ethr) on eigenvalues was too large:
     Diagonalizing with lowered threshold

     Davidson diagonalization with overlap
     ethr =  5.95E-04,  avg # of iterations =  1.9

     total cpu time spent up to now is        0.7 secs

     total energy              =     -15.73863231 Ry
     estimated scf accuracy    <       0.05574592 Ry

     iteration #  2     ecut=    25.00 Ry     beta= 0.70
     Davidson diagonalization with overlap
     ethr =  6.97E-04,  avg # of iterations =  1.0

     total cpu time spent up to now is        0.8 secs

     total energy              =     -15.74050469 Ry
     estimated scf accuracy    <       0.00311130 Ry

     iteration #  3     ecut=    25.00 Ry     beta= 0.70
     Davidson diagonalization with overlap
     ethr =  3.89E-05,  avg # of iterations =  2.1

     total cpu time spent up to now is        1.1 secs

     total energy              =     -15.74113293 Ry
     estimated scf accuracy    <       0.00009478 Ry

     iteration #  4     ecut=    25.00 Ry     beta= 0.70
     Davidson diagonalization with overlap
     ethr =  1.18E-06,  avg # of iterations =  4.6

     total cpu time spent up to now is        1.4 secs

     total energy              =     -15.74120867 Ry
     estimated scf accuracy    <       0.00000355 Ry

     iteration #  5     ecut=    25.00 Ry     beta= 0.70
     Davidson diagonalization with overlap
     ethr =  4.44E-08,  avg # of iterations =  4.4

     total cpu time spent up to now is        1.7 secs

     End of self-consistent calculation

          k =-0.0625 0.0625 0.0625 (   549 PWs)   bands (ev):

    -5.6188   5.7150   6.1518   6.1518

          k =-0.1875 0.1875-0.0625 (   563 PWs)   bands (ev):

    -5.3476   4.2210   5.3368   6.0351

          k =-0.3125 0.3125-0.1875 (   573 PWs)   bands (ev):

    -4.6921   1.9806   4.8497   5.5694

          k =-0.4375 0.4375-0.3125 (   579 PWs)   bands (ev):

    -3.7737   0.0720   4.6355   5.1589

          k = 0.4375-0.4375 0.5625 (   574 PWs)   bands (ev):

    -3.3124  -0.6430   4.6885   4.9375

          k = 0.3125-0.3125 0.4375 (   573 PWs)   bands (ev):

    -4.0891   0.6380   4.9563   4.9784

          k = 0.1875-0.1875 0.3125 (   568 PWs)   bands (ev):

    -4.9493   2.7164   5.2330   5.4454

          k = 0.0625-0.0625 0.1875 (   559 PWs)   bands (ev):

    -5.4825   4.9755   5.7188   5.8888

          k =-0.0625 0.3125 0.0625 (   565 PWs)   bands (ev):

    -5.2112   4.0956   5.1541   5.2506

          k =-0.1875 0.4375-0.0625 (   570 PWs)   bands (ev):

    -4.6801   2.5898   4.1777   4.9864

          k =-0.3125 0.5625-0.1875 (   574 PWs)   bands (ev):

    -3.8222   0.7054   3.6911   4.5665

          k = 0.5625-0.3125 0.6875 (   571 PWs)   bands (ev):

    -3.0415  -0.5284   3.4035   4.4702

          k = 0.4375-0.1875 0.5625 (   572 PWs)   bands (ev):

    -3.5120   0.1770   3.3238   4.7607

          k = 0.3125-0.0625 0.4375 (   572 PWs)   bands (ev):

    -4.4285   1.9317   3.6159   5.2770

          k = 0.1875 0.0625 0.3125 (   567 PWs)   bands (ev):

    -5.0791   3.4087   4.7542   5.6565

          k =-0.0625 0.5625 0.0625 (   566 PWs)   bands (ev):

    -4.2751   2.1041   4.0319   4.1536

          k =-0.1875 0.6875-0.0625 (   574 PWs)   bands (ev):

    -3.5134   0.8578   3.2339   3.8015

          k = 0.6875-0.1875 0.8125 (   565 PWs)   bands (ev):

    -2.5978  -0.3605   2.3834   3.7700

          k = 0.5625-0.0625 0.6875 (   566 PWs)   bands (ev):

    -2.6681  -0.2668   2.0217   4.1202

          k = 0.4375 0.0625 0.5625 (   569 PWs)   bands (ev):

    -3.5810   0.6872   2.6406   4.7152

          k = 0.3125 0.1875 0.4375 (   572 PWs)   bands (ev):

    -4.3131   1.3059   4.3051   5.1778

          k =-0.0625 0.8125 0.0625 (   571 PWs)   bands (ev):

    -2.8529  -0.0096   3.3325   3.5545

          k = 0.8125-0.0625 0.9375 (   572 PWs)   bands (ev):

    -1.9295  -1.0083   2.7629   3.3057

          k = 0.6875 0.0625 0.8125 (   567 PWs)   bands (ev):

    -2.0190  -0.8468   2.0186   3.6251

          k = 0.5625 0.1875 0.6875 (   568 PWs)   bands (ev):

    -2.7832  -0.4674   2.6032   4.2351

          k = 0.4375 0.3125 0.5625 (   577 PWs)   bands (ev):

    -3.4020  -0.3354   4.1359   4.8351

          k =-0.0625-0.9375 0.0625 (   578 PWs)   bands (ev):

    -1.9838  -1.0277   3.1930   3.4322

          k =-0.1875-0.8125-0.0625 (   574 PWs)   bands (ev):

    -2.7647  -0.0733   2.9243   3.4667

          k =-0.3125-0.6875-0.1875 (   569 PWs)   bands (ev):

    -3.2378   0.1625   3.0042   4.0745

          k =-0.0625-0.6875 0.0625 (   572 PWs)   bands (ev):

    -3.6208   1.0452   3.6120   3.7969

          k =-0.1875-0.5625-0.0625 (   570 PWs)   bands (ev):

    -4.1557   1.7473   3.6622   4.3213

          k =-0.0625-0.4375 0.0625 (   572 PWs)   bands (ev):

    -4.8073   3.1315   4.5883   4.6137

          k =-0.1875 0.1875 0.1875 (   564 PWs)   bands (ev):

    -5.2142   3.4885   5.7064   5.7064

          k =-0.3125 0.3125 0.0625 (   570 PWs)   bands (ev):

    -4.8169   2.6587   4.1755   5.7289

          k =-0.4375 0.4375-0.0625 (   569 PWs)   bands (ev):

    -4.0585   1.2877   3.0805   5.2169

          k = 0.4375-0.4375 0.8125 (   566 PWs)   bands (ev):

    -3.1449  -0.2309   2.9391   4.6777

          k = 0.3125-0.3125 0.6875 (   570 PWs)   bands (ev):

    -3.1296  -0.2590   3.2466   4.3541

          k = 0.1875-0.1875 0.5625 (   573 PWs)   bands (ev):

    -4.0422   1.2835   3.8639   4.3280

          k =-0.1875 0.4375 0.1875 (   569 PWs)   bands (ev):

    -4.5565   1.9837   4.7066   4.7517

          k =-0.3125 0.5625 0.0625 (   571 PWs)   bands (ev):

    -3.9210   1.2294   3.1373   4.5568

          k = 0.5625-0.3125 0.9375 (   565 PWs)   bands (ev):

    -3.0141   0.1241   2.3324   3.9759

          k = 0.4375-0.1875 0.8125 (   566 PWs)   bands (ev):

    -2.5144  -0.5049   2.3428   3.6558

          k = 0.3125-0.0625 0.6875 (   570 PWs)   bands (ev):

    -3.3057   0.5243   2.7657   3.8393

          k =-0.1875 0.6875 0.1875 (   568 PWs)   bands (ev):

    -3.4172   0.5756   3.1102   3.9935

          k = 0.6875-0.1875 1.0625 (   570 PWs)   bands (ev):

    -2.6008  -0.2158   2.5133   3.2914

          k = 0.5625-0.0625 0.9375 (   571 PWs)   bands (ev):

    -1.7769  -0.9755   2.1831   2.7793

          k = 0.4375 0.0625 0.8125 (   568 PWs)   bands (ev):

    -2.3890  -0.4284   2.1811   3.2642

          k =-0.1875-1.0625 0.1875 (   571 PWs)   bands (ev):

    -1.9460  -0.9601   2.2906   3.6472

          k =-0.3125-0.9375 0.0625 (   574 PWs)   bands (ev):

    -1.8446  -0.9858   2.3862   3.0017

          k =-0.1875-0.8125 0.1875 (   574 PWs)   bands (ev):

    -2.7003  -0.1819   2.5664   3.7638

          k =-0.3125 0.3125 0.3125 (   568 PWs)   bands (ev):

    -4.4465   1.2671   5.2904   5.2904

          k =-0.4375 0.4375 0.1875 (   574 PWs)   bands (ev):

    -3.9590   0.6915   3.8171   5.2029

          k = 0.4375-0.4375 1.0625 (   566 PWs)   bands (ev):

    -3.1532   0.1817   2.2520   4.6121

          k = 0.3125-0.3125 0.9375 (   565 PWs)   bands (ev):

    -2.3153  -0.5995   1.8998   4.0571

          k =-0.3125 0.5625 0.3125 (   576 PWs)   bands (ev):

    -3.6380   0.1241   4.1665   4.6293

          k = 0.5625-0.3125 1.1875 (   568 PWs)   bands (ev):

    -3.0067  -0.2235   2.8313   4.1432

          k = 0.4375-0.1875 1.0625 (   569 PWs)   bands (ev):

    -2.1761  -0.6593   1.9928   3.4168

          k =-0.3125-1.1875 0.3125 (   566 PWs)   bands (ev):

    -2.6405  -0.4995   2.4233   4.1583

          k =-0.4375 0.4375 0.4375 (   571 PWs)   bands (ev):

    -3.5366  -0.4029   5.0686   5.0686

          k = 0.4375-0.4375 1.3125 (   569 PWs)   bands (ev):

    -3.1778  -0.5765   3.8435   4.7952

     highest occupied level (ev):     6.1518

!    total energy              =     -15.74121150 Ry
     estimated scf accuracy    <       0.00000022 Ry

     The total energy is the sum of the following terms:
     one-electron contribution =       4.77923143 Ry
     hartree contribution      =       1.09369286 Ry
     xc contribution           =      -4.81320620 Ry
     ewald contribution        =     -16.80092959 Ry

     convergence has been achieved in   5 iterations

     Writing output data file ./Si_exc1.save/

     init_run     :      0.20s CPU      0.21s WALL (       1 calls)
     electrons    :      1.43s CPU      1.52s WALL (       1 calls)

     Called by init_run:
     wfcinit      :      0.14s CPU      0.14s WALL (       1 calls)
     potinit      :      0.01s CPU      0.01s WALL (       1 calls)
     hinit0       :      0.05s CPU      0.05s WALL (       1 calls)

     Called by electrons:
     c_bands      :      1.19s CPU      1.21s WALL (       6 calls)
     sum_band     :      0.20s CPU      0.21s WALL (       6 calls)
     v_of_rho     :      0.04s CPU      0.04s WALL (       6 calls)
     mix_rho      :      0.00s CPU      0.00s WALL (       6 calls)

     Called by c_bands:
     init_us_2    :      0.08s CPU      0.08s WALL (     780 calls)
     cegterg      :      1.14s CPU      1.16s WALL (     360 calls)

     Called by *egterg:
     cdiaghg      :      0.03s CPU      0.03s WALL (    1258 calls)
     h_psi        :      1.12s CPU      1.15s WALL (    1378 calls)
     g_psi        :      0.01s CPU      0.01s WALL (     958 calls)

     Called by h_psi:
     h_psi:calbec :      0.03s CPU      0.03s WALL (    1378 calls)
     vloc_psi     :      1.06s CPU      1.08s WALL (    1378 calls)
     add_vuspsi   :      0.02s CPU      0.02s WALL (    1378 calls)

     General routines
     calbec       :      0.03s CPU      0.03s WALL (    1378 calls)
     fft          :      0.02s CPU      0.02s WALL (      60 calls)
     ffts         :      0.00s CPU      0.00s WALL (       6 calls)
     fftw         :      1.05s CPU      1.07s WALL (   11182 calls)

     Parallel routines

     PWSCF        :      1.67s CPU      1.80s WALL


   This run was terminated on:  17: 4:52  19Sep2022            

=------------------------------------------------------------------------------=
   JOB DONE.
=------------------------------------------------------------------------------=
