
     Program PWSCF v.6.7MaX starts on 19Sep2022 at 17: 4:52 

     This program is part of the open-source Quantum ESPRESSO suite
     for quantum simulation of materials; please cite
         "P. Giannozzi et al., J. Phys.:Condens. Matter 21 395502 (2009);
         "P. Giannozzi et al., J. Phys.:Condens. Matter 29 465901 (2017);
          URL http://www.quantum-espresso.org", 
     in publications or presentations arising from this work. More details at
     http://www.quantum-espresso.org/quote

     Parallel version (MPI), running on     1 processors

     MPI processes distributed on     1 nodes
     Waiting for input...
     Reading input from standard input

     Current dimensions of program PWSCF are:
     Max number of different atomic species (ntypx) = 10
     Max number of k-points (npk) =  40000
     Max angular momentum in pseudopotentials (lmaxx) =  3

     Subspace diagonalization in iterative solution of the eigenvalue problem:
     a serial algorithm will be used


     G-vector sticks info
     --------------------
     sticks:   dense  smooth     PW     G-vecs:    dense   smooth      PW
     Sum         361     361    121                 4573     4573     941



     bravais-lattice index     =            2
     lattice parameter (alat)  =      10.2600  a.u.
     unit-cell volume          =     270.0114 (a.u.)^3
     number of atoms/cell      =            2
     number of atomic types    =            1
     number of electrons       =         8.00
     number of Kohn-Sham states=            4
     kinetic-energy cutoff     =      25.0000  Ry
     charge density cutoff     =     100.0000  Ry
     scf convergence threshold =      1.0E-06
     mixing beta               =       0.7000
     number of iterations used =            8  plain     mixing
     Exchange-correlation=  SLA  PW   PBE  PBE
                           (   1   4   3   4   0   0   0)

     celldm(1)=  10.260000  celldm(2)=   0.000000  celldm(3)=   0.000000
     celldm(4)=   0.000000  celldm(5)=   0.000000  celldm(6)=   0.000000

     crystal axes: (cart. coord. in units of alat)
               a(1) = (  -0.500000   0.000000   0.500000 )  
               a(2) = (   0.000000   0.500000   0.500000 )  
               a(3) = (  -0.500000   0.500000   0.000000 )  

     reciprocal axes: (cart. coord. in units 2 pi/alat)
               b(1) = ( -1.000000 -1.000000  1.000000 )  
               b(2) = (  1.000000  1.000000  1.000000 )  
               b(3) = ( -1.000000  1.000000 -1.000000 )  


     PseudoPot. # 1 for Si read from file:
     ./Si.pbe-rrkj.UPF
     MD5 check sum: cf7ab5690cd9a85b22c4813f7e365554
     Pseudo is Norm-conserving, Zval =  4.0
     Generated by new atomic code, or converted to UPF format
     Using radial grid of  883 points,  3 beta functions with: 
                l(1) =   0
                l(2) =   0
                l(3) =   1

     atomic species   valence    mass     pseudopotential
        Si             4.00    28.08600     Si( 1.00)

     48 Sym. Ops., with inversion, found (24 have fractional translation)



   Cartesian axes

     site n.     atom                  positions (alat units)
         1           Si  tau(   1) = (   0.0000000   0.0000000   0.0000000  )
         2           Si  tau(   2) = (   0.2500000   0.2500000   0.2500000  )

     number of k points=    85
                       cart. coord. in units 2pi/alat
        k(    1) = (  -0.0555556   0.0555556   0.0555556), wk =   0.0054870
        k(    2) = (  -0.1666667   0.1666667  -0.0555556), wk =   0.0164609
        k(    3) = (  -0.2777778   0.2777778  -0.1666667), wk =   0.0164609
        k(    4) = (  -0.3888889   0.3888889  -0.2777778), wk =   0.0164609
        k(    5) = (   0.5000000  -0.5000000   0.6111111), wk =   0.0164609
        k(    6) = (   0.3888889  -0.3888889   0.5000000), wk =   0.0164609
        k(    7) = (   0.2777778  -0.2777778   0.3888889), wk =   0.0164609
        k(    8) = (   0.1666667  -0.1666667   0.2777778), wk =   0.0164609
        k(    9) = (   0.0555556  -0.0555556   0.1666667), wk =   0.0164609
        k(   10) = (  -0.0555556   0.2777778   0.0555556), wk =   0.0164609
        k(   11) = (  -0.1666667   0.3888889  -0.0555556), wk =   0.0329218
        k(   12) = (  -0.2777778   0.5000000  -0.1666667), wk =   0.0329218
        k(   13) = (   0.6111111  -0.3888889   0.7222222), wk =   0.0329218
        k(   14) = (   0.5000000  -0.2777778   0.6111111), wk =   0.0329218
        k(   15) = (   0.3888889  -0.1666667   0.5000000), wk =   0.0329218
        k(   16) = (   0.2777778  -0.0555556   0.3888889), wk =   0.0329218
        k(   17) = (   0.1666667   0.0555556   0.2777778), wk =   0.0329218
        k(   18) = (  -0.0555556   0.5000000   0.0555556), wk =   0.0164609
        k(   19) = (  -0.1666667   0.6111111  -0.0555556), wk =   0.0329218
        k(   20) = (   0.7222222  -0.2777778   0.8333333), wk =   0.0329218
        k(   21) = (   0.6111111  -0.1666667   0.7222222), wk =   0.0329218
        k(   22) = (   0.5000000  -0.0555556   0.6111111), wk =   0.0329218
        k(   23) = (   0.3888889   0.0555556   0.5000000), wk =   0.0329218
        k(   24) = (   0.2777778   0.1666667   0.3888889), wk =   0.0329218
        k(   25) = (  -0.0555556   0.7222222   0.0555556), wk =   0.0164609
        k(   26) = (   0.8333333  -0.1666667   0.9444444), wk =   0.0329218
        k(   27) = (   0.7222222  -0.0555556   0.8333333), wk =   0.0329218
        k(   28) = (   0.6111111   0.0555556   0.7222222), wk =   0.0329218
        k(   29) = (   0.5000000   0.1666667   0.6111111), wk =   0.0329218
        k(   30) = (   0.3888889   0.2777778   0.5000000), wk =   0.0329218
        k(   31) = (  -0.0555556  -1.0555556   0.0555556), wk =   0.0164609
        k(   32) = (  -0.1666667  -0.9444444  -0.0555556), wk =   0.0329218
        k(   33) = (  -0.2777778  -0.8333333  -0.1666667), wk =   0.0329218
        k(   34) = (  -0.3888889  -0.7222222  -0.2777778), wk =   0.0329218
        k(   35) = (  -0.5000000  -0.6111111  -0.3888889), wk =   0.0164609
        k(   36) = (  -0.0555556  -0.8333333   0.0555556), wk =   0.0164609
        k(   37) = (  -0.1666667  -0.7222222  -0.0555556), wk =   0.0329218
        k(   38) = (  -0.2777778  -0.6111111  -0.1666667), wk =   0.0329218
        k(   39) = (  -0.0555556  -0.6111111   0.0555556), wk =   0.0164609
        k(   40) = (  -0.1666667  -0.5000000  -0.0555556), wk =   0.0329218
        k(   41) = (  -0.0555556  -0.3888889   0.0555556), wk =   0.0164609
        k(   42) = (  -0.1666667   0.1666667   0.1666667), wk =   0.0054870
        k(   43) = (  -0.2777778   0.2777778   0.0555556), wk =   0.0164609
        k(   44) = (  -0.3888889   0.3888889  -0.0555556), wk =   0.0164609
        k(   45) = (   0.5000000  -0.5000000   0.8333333), wk =   0.0164609
        k(   46) = (   0.3888889  -0.3888889   0.7222222), wk =   0.0164609
        k(   47) = (   0.2777778  -0.2777778   0.6111111), wk =   0.0164609
        k(   48) = (   0.1666667  -0.1666667   0.5000000), wk =   0.0164609
        k(   49) = (  -0.1666667   0.3888889   0.1666667), wk =   0.0164609
        k(   50) = (  -0.2777778   0.5000000   0.0555556), wk =   0.0329218
        k(   51) = (   0.6111111  -0.3888889   0.9444444), wk =   0.0329218
        k(   52) = (   0.5000000  -0.2777778   0.8333333), wk =   0.0329218
        k(   53) = (   0.3888889  -0.1666667   0.7222222), wk =   0.0329218
        k(   54) = (   0.2777778  -0.0555556   0.6111111), wk =   0.0329218
        k(   55) = (  -0.1666667   0.6111111   0.1666667), wk =   0.0164609
        k(   56) = (   0.7222222  -0.2777778   1.0555556), wk =   0.0329218
        k(   57) = (   0.6111111  -0.1666667   0.9444444), wk =   0.0329218
        k(   58) = (   0.5000000  -0.0555556   0.8333333), wk =   0.0329218
        k(   59) = (   0.3888889   0.0555556   0.7222222), wk =   0.0329218
        k(   60) = (  -0.1666667  -1.1666667   0.1666667), wk =   0.0164609
        k(   61) = (  -0.2777778  -1.0555556   0.0555556), wk =   0.0329218
        k(   62) = (  -0.3888889  -0.9444444  -0.0555556), wk =   0.0329218
        k(   63) = (  -0.5000000  -0.8333333  -0.1666667), wk =   0.0164609
        k(   64) = (  -0.1666667  -0.9444444   0.1666667), wk =   0.0164609
        k(   65) = (  -0.2777778  -0.8333333   0.0555556), wk =   0.0329218
        k(   66) = (  -0.1666667  -0.7222222   0.1666667), wk =   0.0164609
        k(   67) = (  -0.2777778   0.2777778   0.2777778), wk =   0.0054870
        k(   68) = (  -0.3888889   0.3888889   0.1666667), wk =   0.0164609
        k(   69) = (   0.5000000  -0.5000000   1.0555556), wk =   0.0164609
        k(   70) = (   0.3888889  -0.3888889   0.9444444), wk =   0.0164609
        k(   71) = (   0.2777778  -0.2777778   0.8333333), wk =   0.0164609
        k(   72) = (  -0.2777778   0.5000000   0.2777778), wk =   0.0164609
        k(   73) = (   0.6111111  -0.3888889   1.1666667), wk =   0.0329218
        k(   74) = (   0.5000000  -0.2777778   1.0555556), wk =   0.0329218
        k(   75) = (   0.3888889  -0.1666667   0.9444444), wk =   0.0329218
        k(   76) = (  -0.2777778  -1.2777778   0.2777778), wk =   0.0164609
        k(   77) = (  -0.3888889  -1.1666667   0.1666667), wk =   0.0329218
        k(   78) = (  -0.5000000  -1.0555556   0.0555556), wk =   0.0164609
        k(   79) = (  -0.2777778  -1.0555556   0.2777778), wk =   0.0164609
        k(   80) = (  -0.3888889   0.3888889   0.3888889), wk =   0.0054870
        k(   81) = (   0.5000000  -0.5000000   1.2777778), wk =   0.0164609
        k(   82) = (   0.3888889  -0.3888889   1.1666667), wk =   0.0164609
        k(   83) = (  -0.3888889  -1.3888889   0.3888889), wk =   0.0164609
        k(   84) = (  -0.5000000  -1.2777778   0.2777778), wk =   0.0164609
        k(   85) = (   0.5000000  -0.5000000  -0.5000000), wk =   0.0027435

     Dense  grid:     4573 G-vectors     FFT dimensions: (  24,  24,  24)

     Estimated max dynamical RAM per process >       6.21 MB

     Initial potential from superposition of free atoms

     starting charge    7.99889, renormalised to    8.00000
     Starting wfcs are    8 randomized atomic wfcs

     total cpu time spent up to now is        0.3 secs

     Self-consistent Calculation

     iteration #  1     ecut=    25.00 Ry     beta= 0.70
     Davidson diagonalization with overlap
     ethr =  1.00E-02,  avg # of iterations =  2.0

     Threshold (ethr) on eigenvalues was too large:
     Diagonalizing with lowered threshold

     Davidson diagonalization with overlap
     ethr =  5.95E-04,  avg # of iterations =  1.9

     total cpu time spent up to now is        0.9 secs

     total energy              =     -15.73863827 Ry
     estimated scf accuracy    <       0.05569872 Ry

     iteration #  2     ecut=    25.00 Ry     beta= 0.70
     Davidson diagonalization with overlap
     ethr =  6.96E-04,  avg # of iterations =  1.0

     total cpu time spent up to now is        1.1 secs

     total energy              =     -15.74050249 Ry
     estimated scf accuracy    <       0.00311324 Ry

     iteration #  3     ecut=    25.00 Ry     beta= 0.70
     Davidson diagonalization with overlap
     ethr =  3.89E-05,  avg # of iterations =  2.1

     total cpu time spent up to now is        1.5 secs

     total energy              =     -15.74113383 Ry
     estimated scf accuracy    <       0.00009569 Ry

     iteration #  4     ecut=    25.00 Ry     beta= 0.70
     Davidson diagonalization with overlap
     ethr =  1.20E-06,  avg # of iterations =  4.5

     total cpu time spent up to now is        1.9 secs

     total energy              =     -15.74120813 Ry
     estimated scf accuracy    <       0.00000443 Ry

     iteration #  5     ecut=    25.00 Ry     beta= 0.70
     Davidson diagonalization with overlap
     ethr =  5.54E-08,  avg # of iterations =  4.3

     total cpu time spent up to now is        2.3 secs

     End of self-consistent calculation

          k =-0.0556 0.0556 0.0556 (   549 PWs)   bands (ev):

    -5.6295   5.8124   6.1688   6.1688

          k =-0.1667 0.1667-0.0556 (   563 PWs)   bands (ev):

    -5.4147   4.5216   5.4907   6.0766

          k =-0.2778 0.2778-0.1667 (   571 PWs)   bands (ev):

    -4.8910   2.5084   5.0279   5.6751

          k =-0.3889 0.3889-0.2778 (   579 PWs)   bands (ev):

    -4.1165   0.6693   4.7631   5.2844

          k = 0.5000-0.5000 0.6111 (   574 PWs)   bands (ev):

    -3.3739  -0.5727   4.7076   5.0247

          k = 0.3889-0.3889 0.5000 (   574 PWs)   bands (ev):

    -3.5722  -0.2742   4.8490   4.9394

          k = 0.2778-0.2778 0.3889 (   573 PWs)   bands (ev):

    -4.3941   1.2418   5.0509   5.1616

          k = 0.1667-0.1667 0.2778 (   566 PWs)   bands (ev):

    -5.0976   3.1810   5.3594   5.5915

          k = 0.0556-0.0556 0.1667 (   559 PWs)   bands (ev):

    -5.5217   5.1824   5.8073   5.9591

          k =-0.0556 0.2778 0.0556 (   564 PWs)   bands (ev):

    -5.3068   4.4124   5.3105   5.4212

          k =-0.1667 0.3889-0.0556 (   568 PWs)   bands (ev):

    -4.8842   3.0488   4.4609   5.1981

          k =-0.2778 0.5000-0.1667 (   573 PWs)   bands (ev):

    -4.1826   1.2787   4.0090   4.7956

          k = 0.6111-0.3889 0.7222 (   576 PWs)   bands (ev):

    -3.3596  -0.1844   3.7305   4.5727

          k = 0.5000-0.2778 0.6111 (   571 PWs)   bands (ev):

    -3.1620  -0.4732   3.5730   4.6654

          k = 0.3889-0.1667 0.5000 (   573 PWs)   bands (ev):

    -3.9092   0.7398   3.6098   5.0134

          k = 0.2778-0.0556 0.3889 (   569 PWs)   bands (ev):

    -4.6810   2.4312   3.9590   5.4774

          k = 0.1667 0.0556 0.2778 (   564 PWs)   bands (ev):

    -5.2016   3.7931   4.9827   5.7705

          k =-0.0556 0.5000 0.0556 (   570 PWs)   bands (ev):

    -4.5634   2.6536   4.3035   4.3675

          k =-0.1667 0.6111-0.0556 (   567 PWs)   bands (ev):

    -3.9492   1.4825   3.5592   4.0736

          k = 0.7222-0.2778 0.8333 (   566 PWs)   bands (ev):

    -3.1291   0.1796   2.8333   3.9146

          k = 0.6111-0.1667 0.7222 (   567 PWs)   bands (ev):

    -2.5971  -0.5185   2.3481   4.0711

          k = 0.5000-0.0556 0.6111 (   565 PWs)   bands (ev):

    -3.1777   0.2424   2.2823   4.4825

          k = 0.3889 0.0556 0.5000 (   569 PWs)   bands (ev):

    -3.9862   1.2326   3.0126   5.0191

          k = 0.2778 0.1667 0.3889 (   567 PWs)   bands (ev):

    -4.5844   1.8697   4.5406   5.3525

          k =-0.0556 0.7222 0.0556 (   572 PWs)   bands (ev):

    -3.4238   0.7582   3.5531   3.7125

          k = 0.8333-0.1667 0.9444 (   573 PWs)   bands (ev):

    -2.6518  -0.2162   2.9828   3.4400

          k = 0.7222-0.0556 0.8333 (   569 PWs)   bands (ev):

    -1.9313  -0.9400   2.1135   3.5736

          k = 0.6111 0.0556 0.7222 (   569 PWs)   bands (ev):

    -2.3993  -0.5034   1.9160   3.9755

          k = 0.5000 0.1667 0.6111 (   572 PWs)   bands (ev):

    -3.1624  -0.1146   2.8321   4.5452

          k = 0.3889 0.2778 0.5000 (   574 PWs)   bands (ev):

    -3.7640   0.1871   4.3263   4.9857

          k =-0.0556-1.0556 0.0556 (   578 PWs)   bands (ev):

    -1.9357  -1.0838   3.2305   3.4233

          k =-0.1667-0.9444-0.0556 (   570 PWs)   bands (ev):

    -1.8929  -1.0651   2.8612   3.3192

          k =-0.2778-0.8333-0.1667 (   572 PWs)   bands (ev):

    -2.5149  -0.3877   2.3657   3.6849

          k =-0.3889-0.7222-0.2778 (   569 PWs)   bands (ev):

    -2.9462  -0.4249   3.0165   4.2659

          k =-0.5000-0.6111-0.3889 (   572 PWs)   bands (ev):

    -3.2251  -0.6472   4.2715   4.8390

          k =-0.0556-0.8333 0.0556 (   571 PWs)   bands (ev):

    -2.7190  -0.1803   3.3381   3.5202

          k =-0.1667-0.7222-0.0556 (   575 PWs)   bands (ev):

    -3.3419   0.6431   3.2204   3.6881

          k =-0.2778-0.6111-0.1667 (   571 PWs)   bands (ev):

    -3.6932   0.7247   3.4225   4.2813

          k =-0.0556-0.6111 0.0556 (   570 PWs)   bands (ev):

    -4.0408   1.7107   3.8754   3.9969

          k =-0.1667-0.5000-0.0556 (   569 PWs)   bands (ev):

    -4.4654   2.2838   3.9789   4.5928

          k =-0.0556-0.3889 0.0556 (   570 PWs)   bands (ev):

    -4.9866   3.5621   4.8129   4.8300

          k =-0.1667 0.1667 0.1667 (   564 PWs)   bands (ev):

    -5.3087   3.8799   5.7875   5.7875

          k =-0.2778 0.2778 0.0556 (   568 PWs)   bands (ev):

    -4.9923   3.1078   4.4741   5.8425

          k =-0.3889 0.3889-0.0556 (   568 PWs)   bands (ev):

    -4.3799   1.8177   3.4560   5.4371

          k = 0.5000-0.5000 0.8333 (   575 PWs)   bands (ev):

    -3.5619   0.2680   3.2040   4.9425

          k = 0.3889-0.3889 0.7222 (   570 PWs)   bands (ev):

    -3.0120  -0.5605   3.3174   4.5732

          k = 0.2778-0.2778 0.6111 (   573 PWs)   bands (ev):

    -3.5497   0.2425   3.6930   4.4134

          k = 0.1667-0.1667 0.5000 (   566 PWs)   bands (ev):

    -4.3701   1.8384   4.2573   4.4945

          k =-0.1667 0.3889 0.1667 (   571 PWs)   bands (ev):

    -4.7837   2.5000   4.9091   4.9861

          k =-0.2778 0.5000 0.0556 (   571 PWs)   bands (ev):

    -4.2715   1.7695   3.4952   4.8653

          k = 0.6111-0.3889 0.9444 (   568 PWs)   bands (ev):

    -3.5081   0.6734   2.6583   4.3768

          k = 0.5000-0.2778 0.8333 (   567 PWs)   bands (ev):

    -2.7499  -0.3934   2.5086   3.9830

          k = 0.3889-0.1667 0.7222 (   568 PWs)   bands (ev):

    -2.9444  -0.1380   2.6852   3.9127

          k = 0.2778-0.0556 0.6111 (   571 PWs)   bands (ev):

    -3.7694   1.1069   3.1076   4.2129

          k =-0.1667 0.6111 0.1667 (   573 PWs)   bands (ev):

    -3.8623   1.1720   3.5633   4.1439

          k = 0.7222-0.2778 1.0556 (   571 PWs)   bands (ev):

    -3.1831   0.4204   2.8084   3.6496

          k = 0.6111-0.1667 0.9444 (   569 PWs)   bands (ev):

    -2.3578  -0.4432   2.2819   3.1448

          k = 0.5000-0.0556 0.8333 (   566 PWs)   bands (ev):

    -2.1782  -0.6233   2.0613   3.2003

          k = 0.3889 0.0556 0.7222 (   565 PWs)   bands (ev):

    -2.9585   0.1226   2.4110   3.7056

          k =-0.1667-1.1667 0.1667 (   572 PWs)   bands (ev):

    -2.6009  -0.2763   2.6125   3.6874

          k =-0.2778-1.0556 0.0556 (   574 PWs)   bands (ev):

    -1.8216  -1.0390   2.5009   3.0471

          k =-0.3889-0.9444-0.0556 (   575 PWs)   bands (ev):

    -1.7517  -1.0201   2.2584   2.8008

          k =-0.5000-0.8333-0.1667 (   564 PWs)   bands (ev):

    -2.3915  -0.5593   2.2388   3.4811

          k =-0.1667-0.9444 0.1667 (   569 PWs)   bands (ev):

    -1.8969  -1.0260   2.4217   3.5940

          k =-0.2778-0.8333 0.0556 (   571 PWs)   bands (ev):

    -2.5255  -0.3012   2.6045   3.2502

          k =-0.1667-0.7222 0.1667 (   576 PWs)   bands (ev):

    -3.2682   0.4701   2.9976   3.8722

          k =-0.2778 0.2778 0.2778 (   570 PWs)   bands (ev):

    -4.6903   1.8507   5.3895   5.3895

          k =-0.3889 0.3889 0.1667 (   573 PWs)   bands (ev):

    -4.2905   1.2738   4.0786   5.3878

          k = 0.5000-0.5000 1.0556 (   564 PWs)   bands (ev):

    -3.6174   0.7188   2.5965   4.9156

          k = 0.3889-0.3889 0.9444 (   568 PWs)   bands (ev):

    -2.7980  -0.1542   2.0229   4.3818

          k = 0.2778-0.2778 0.8333 (   567 PWs)   bands (ev):

    -2.5237  -0.4950   2.2798   4.0078

          k =-0.2778 0.5000 0.2778 (   576 PWs)   bands (ev):

    -4.0097   0.7045   4.4954   4.7133

          k = 0.6111-0.3889 1.1667 (   570 PWs)   bands (ev):

    -3.4529   0.2722   3.1474   4.4434

          k = 0.5000-0.2778 1.0556 (   564 PWs)   bands (ev):

    -2.6873  -0.2004   2.0961   3.8463

          k = 0.3889-0.1667 0.9444 (   571 PWs)   bands (ev):

    -2.0254  -0.8011   1.9928   3.3810

          k =-0.2778-1.2778 0.2778 (   567 PWs)   bands (ev):

    -3.0378  -0.1525   2.9148   4.1737

          k =-0.3889-1.1667 0.1667 (   567 PWs)   bands (ev):

    -2.4289  -0.5065   2.2603   3.5523

          k =-0.5000-1.0556 0.0556 (   572 PWs)   bands (ev):

    -1.7217  -1.0142   2.1753   2.7039

          k =-0.2778-1.0556 0.2778 (   573 PWs)   bands (ev):

    -2.1338  -0.7563   1.9135   3.9232

          k =-0.3889 0.3889 0.3889 (   577 PWs)   bands (ev):

    -3.8695   0.1372   5.1291   5.1291

          k = 0.5000-0.5000 1.2778 (   573 PWs)   bands (ev):

    -3.4680  -0.2199   3.9880   4.9853

          k = 0.3889-0.3889 1.1667 (   568 PWs)   bands (ev):

    -2.8587  -0.3896   2.5498   4.4477

          k =-0.3889-1.3889 0.3889 (   571 PWs)   bands (ev):

    -3.2660  -0.5219   4.1405   4.7444

          k =-0.5000-1.2778 0.2778 (   566 PWs)   bands (ev):

    -2.9062  -0.5303   3.0654   4.2678

          k = 0.5000-0.5000-0.5000 (   568 PWs)   bands (ev):

    -3.3328  -0.7027   5.0408   5.0408

     highest occupied level (ev):     6.1688

!    total energy              =     -15.74121155 Ry
     estimated scf accuracy    <       0.00000026 Ry

     The total energy is the sum of the following terms:
     one-electron contribution =       4.77924376 Ry
     hartree contribution      =       1.09367290 Ry
     xc contribution           =      -4.81319863 Ry
     ewald contribution        =     -16.80092959 Ry

     convergence has been achieved in   5 iterations

     Writing output data file ./Si_exc1.save/

     init_run     :      0.26s CPU      0.27s WALL (       1 calls)
     electrons    :      2.00s CPU      2.07s WALL (       1 calls)

     Called by init_run:
     wfcinit      :      0.19s CPU      0.20s WALL (       1 calls)
     potinit      :      0.01s CPU      0.01s WALL (       1 calls)
     hinit0       :      0.05s CPU      0.05s WALL (       1 calls)

     Called by electrons:
     c_bands      :      1.67s CPU      1.69s WALL (       6 calls)
     sum_band     :      0.29s CPU      0.29s WALL (       6 calls)
     v_of_rho     :      0.04s CPU      0.04s WALL (       6 calls)
     mix_rho      :      0.00s CPU      0.00s WALL (       6 calls)

     Called by c_bands:
     init_us_2    :      0.11s CPU      0.11s WALL (    1105 calls)
     cegterg      :      1.59s CPU      1.62s WALL (     510 calls)

     Called by *egterg:
     cdiaghg      :      0.04s CPU      0.04s WALL (    1772 calls)
     h_psi        :      1.58s CPU      1.60s WALL (    1942 calls)
     g_psi        :      0.02s CPU      0.02s WALL (    1347 calls)

     Called by h_psi:
     h_psi:calbec :      0.04s CPU      0.04s WALL (    1942 calls)
     vloc_psi     :      1.49s CPU      1.52s WALL (    1942 calls)
     add_vuspsi   :      0.03s CPU      0.03s WALL (    1942 calls)

     General routines
     calbec       :      0.03s CPU      0.04s WALL (    1942 calls)
     fft          :      0.02s CPU      0.02s WALL (      60 calls)
     ffts         :      0.00s CPU      0.00s WALL (       6 calls)
     fftw         :      1.48s CPU      1.50s WALL (   15718 calls)

     Parallel routines

     PWSCF        :      2.33s CPU      2.41s WALL


   This run was terminated on:  17: 4:55  19Sep2022            

=------------------------------------------------------------------------------=
   JOB DONE.
=------------------------------------------------------------------------------=
