
     Program PWSCF v.6.7MaX starts on 19Sep2022 at 17: 4:48 

     This program is part of the open-source Quantum ESPRESSO suite
     for quantum simulation of materials; please cite
         "P. Giannozzi et al., J. Phys.:Condens. Matter 21 395502 (2009);
         "P. Giannozzi et al., J. Phys.:Condens. Matter 29 465901 (2017);
          URL http://www.quantum-espresso.org", 
     in publications or presentations arising from this work. More details at
     http://www.quantum-espresso.org/quote

     Parallel version (MPI), running on     1 processors

     MPI processes distributed on     1 nodes
     Waiting for input...
     Reading input from standard input

     Current dimensions of program PWSCF are:
     Max number of different atomic species (ntypx) = 10
     Max number of k-points (npk) =  40000
     Max angular momentum in pseudopotentials (lmaxx) =  3

     Subspace diagonalization in iterative solution of the eigenvalue problem:
     a serial algorithm will be used


     G-vector sticks info
     --------------------
     sticks:   dense  smooth     PW     G-vecs:    dense   smooth      PW
     Sum         361     361    121                 4573     4573     941



     bravais-lattice index     =            2
     lattice parameter (alat)  =      10.2600  a.u.
     unit-cell volume          =     270.0114 (a.u.)^3
     number of atoms/cell      =            2
     number of atomic types    =            1
     number of electrons       =         8.00
     number of Kohn-Sham states=            4
     kinetic-energy cutoff     =      25.0000  Ry
     charge density cutoff     =     100.0000  Ry
     scf convergence threshold =      1.0E-06
     mixing beta               =       0.7000
     number of iterations used =            8  plain     mixing
     Exchange-correlation=  SLA  PW   PBE  PBE
                           (   1   4   3   4   0   0   0)

     celldm(1)=  10.260000  celldm(2)=   0.000000  celldm(3)=   0.000000
     celldm(4)=   0.000000  celldm(5)=   0.000000  celldm(6)=   0.000000

     crystal axes: (cart. coord. in units of alat)
               a(1) = (  -0.500000   0.000000   0.500000 )  
               a(2) = (   0.000000   0.500000   0.500000 )  
               a(3) = (  -0.500000   0.500000   0.000000 )  

     reciprocal axes: (cart. coord. in units 2 pi/alat)
               b(1) = ( -1.000000 -1.000000  1.000000 )  
               b(2) = (  1.000000  1.000000  1.000000 )  
               b(3) = ( -1.000000  1.000000 -1.000000 )  


     PseudoPot. # 1 for Si read from file:
     ./Si.pbe-rrkj.UPF
     MD5 check sum: cf7ab5690cd9a85b22c4813f7e365554
     Pseudo is Norm-conserving, Zval =  4.0
     Generated by new atomic code, or converted to UPF format
     Using radial grid of  883 points,  3 beta functions with: 
                l(1) =   0
                l(2) =   0
                l(3) =   1

     atomic species   valence    mass     pseudopotential
        Si             4.00    28.08600     Si( 1.00)

     48 Sym. Ops., with inversion, found (24 have fractional translation)



   Cartesian axes

     site n.     atom                  positions (alat units)
         1           Si  tau(   1) = (   0.0000000   0.0000000   0.0000000  )
         2           Si  tau(   2) = (   0.2500000   0.2500000   0.2500000  )

     number of k points=    28
                       cart. coord. in units 2pi/alat
        k(    1) = (  -0.0833333   0.0833333   0.0833333), wk =   0.0185185
        k(    2) = (  -0.2500000   0.2500000  -0.0833333), wk =   0.0555556
        k(    3) = (  -0.4166667   0.4166667  -0.2500000), wk =   0.0555556
        k(    4) = (   0.4166667  -0.4166667   0.5833333), wk =   0.0555556
        k(    5) = (   0.2500000  -0.2500000   0.4166667), wk =   0.0555556
        k(    6) = (   0.0833333  -0.0833333   0.2500000), wk =   0.0555556
        k(    7) = (  -0.0833333   0.4166667   0.0833333), wk =   0.0555556
        k(    8) = (  -0.2500000   0.5833333  -0.0833333), wk =   0.1111111
        k(    9) = (   0.5833333  -0.2500000   0.7500000), wk =   0.1111111
        k(   10) = (   0.4166667  -0.0833333   0.5833333), wk =   0.1111111
        k(   11) = (   0.2500000   0.0833333   0.4166667), wk =   0.1111111
        k(   12) = (  -0.0833333   0.7500000   0.0833333), wk =   0.0555556
        k(   13) = (   0.7500000  -0.0833333   0.9166667), wk =   0.1111111
        k(   14) = (   0.5833333   0.0833333   0.7500000), wk =   0.1111111
        k(   15) = (   0.4166667   0.2500000   0.5833333), wk =   0.1111111
        k(   16) = (  -0.0833333  -0.9166667   0.0833333), wk =   0.0555556
        k(   17) = (  -0.2500000  -0.7500000  -0.0833333), wk =   0.1111111
        k(   18) = (  -0.0833333  -0.5833333   0.0833333), wk =   0.0555556
        k(   19) = (  -0.2500000   0.2500000   0.2500000), wk =   0.0185185
        k(   20) = (  -0.4166667   0.4166667   0.0833333), wk =   0.0555556
        k(   21) = (   0.4166667  -0.4166667   0.9166667), wk =   0.0555556
        k(   22) = (   0.2500000  -0.2500000   0.7500000), wk =   0.0555556
        k(   23) = (  -0.2500000   0.5833333   0.2500000), wk =   0.0555556
        k(   24) = (   0.5833333  -0.2500000   1.0833333), wk =   0.1111111
        k(   25) = (   0.4166667  -0.0833333   0.9166667), wk =   0.1111111
        k(   26) = (  -0.2500000  -1.0833333   0.2500000), wk =   0.0555556
        k(   27) = (  -0.4166667   0.4166667   0.4166667), wk =   0.0185185
        k(   28) = (   0.4166667  -0.4166667   1.2500000), wk =   0.0555556

     Dense  grid:     4573 G-vectors     FFT dimensions: (  24,  24,  24)

     Estimated max dynamical RAM per process >       4.23 MB

     Initial potential from superposition of free atoms

     starting charge    7.99889, renormalised to    8.00000
     Starting wfcs are    8 randomized atomic wfcs

     total cpu time spent up to now is        0.2 secs

     Self-consistent Calculation

     iteration #  1     ecut=    25.00 Ry     beta= 0.70
     Davidson diagonalization with overlap
     ethr =  1.00E-02,  avg # of iterations =  2.0

     Threshold (ethr) on eigenvalues was too large:
     Diagonalizing with lowered threshold

     Davidson diagonalization with overlap
     ethr =  5.96E-04,  avg # of iterations =  1.9

     total cpu time spent up to now is        0.4 secs

     total energy              =     -15.73861971 Ry
     estimated scf accuracy    <       0.05568803 Ry

     iteration #  2     ecut=    25.00 Ry     beta= 0.70
     Davidson diagonalization with overlap
     ethr =  6.96E-04,  avg # of iterations =  1.0

     total cpu time spent up to now is        0.4 secs

     total energy              =     -15.74049649 Ry
     estimated scf accuracy    <       0.00311209 Ry

     iteration #  3     ecut=    25.00 Ry     beta= 0.70
     Davidson diagonalization with overlap
     ethr =  3.89E-05,  avg # of iterations =  2.0

     total cpu time spent up to now is        0.6 secs

     total energy              =     -15.74112447 Ry
     estimated scf accuracy    <       0.00009279 Ry

     iteration #  4     ecut=    25.00 Ry     beta= 0.70
     Davidson diagonalization with overlap
     ethr =  1.16E-06,  avg # of iterations =  4.7

     total cpu time spent up to now is        0.7 secs

     total energy              =     -15.74120295 Ry
     estimated scf accuracy    <       0.00000292 Ry

     iteration #  5     ecut=    25.00 Ry     beta= 0.70
     Davidson diagonalization with overlap
     ethr =  3.65E-08,  avg # of iterations =  4.3

     total cpu time spent up to now is        0.9 secs

     End of self-consistent calculation

          k =-0.0833 0.0833 0.0833 (   555 PWs)   bands (ev):

    -5.5791   5.3907   6.0928   6.0928

          k =-0.2500 0.2500-0.0833 (   566 PWs)   bands (ev):

    -5.1007   3.3227   4.8576   5.8836

          k =-0.4167 0.4167-0.2500 (   577 PWs)   bands (ev):

    -4.0025   0.5541   4.3973   5.2457

          k = 0.4167-0.4167 0.5833 (   570 PWs)   bands (ev):

    -3.2961  -0.5982   4.4667   4.8637

          k = 0.2500-0.2500 0.4167 (   573 PWs)   bands (ev):

    -4.4171   1.4037   4.9225   4.9671

          k = 0.0833-0.0833 0.2500 (   564 PWs)   bands (ev):

    -5.3376   4.3335   5.4447   5.6395

          k =-0.0833 0.4167 0.0833 (   574 PWs)   bands (ev):

    -4.8588   3.1480   4.7051   4.7126

          k =-0.2500 0.5833-0.0833 (   572 PWs)   bands (ev):

    -3.9445   1.3094   3.3804   4.3268

          k = 0.5833-0.2500 0.7500 (   567 PWs)   bands (ev):

    -2.8181  -0.4560   2.7831   4.0968

          k = 0.4167-0.0833 0.5833 (   570 PWs)   bands (ev):

    -3.5471   0.6118   2.7352   4.5869

          k = 0.2500 0.0833 0.4167 (   569 PWs)   bands (ev):

    -4.6322   2.3037   4.0801   5.2598

          k =-0.0833 0.7500 0.0833 (   571 PWs)   bands (ev):

    -3.2311   0.4912   3.3393   3.6810

          k = 0.7500-0.0833 0.9167 (   573 PWs)   bands (ev):

    -2.0287  -0.8510   2.4915   3.2719

          k = 0.5833 0.0833 0.7500 (   568 PWs)   bands (ev):

    -2.3969  -0.5228   2.0086   3.8201

          k = 0.4167 0.2500 0.5833 (   571 PWs)   bands (ev):

    -3.4325  -0.0884   3.6891   4.6850

          k =-0.0833-0.9167 0.0833 (   570 PWs)   bands (ev):

    -2.1229  -0.8599   3.0683   3.4651

          k =-0.2500-0.7500-0.0833 (   574 PWs)   bands (ev):

    -3.0606   0.2654   2.8183   3.6132

          k =-0.0833-0.5833 0.0833 (   570 PWs)   bands (ev):

    -4.1515   1.8558   3.8884   4.1045

          k =-0.2500 0.2500 0.2500 (   570 PWs)   bands (ev):

    -4.8701   2.3393   5.4786   5.4786

          k =-0.4167 0.4167 0.0833 (   570 PWs)   bands (ev):

    -4.1879   1.4156   3.3455   5.3097

          k = 0.4167-0.4167 0.9167 (   566 PWs)   bands (ev):

    -3.0013  -0.0222   2.2315   4.5201

          k = 0.2500-0.2500 0.7500 (   562 PWs)   bands (ev):

    -2.9497  -0.1012   2.7152   4.0360

          k =-0.2500 0.5833 0.2500 (   577 PWs)   bands (ev):

    -3.7615   0.6034   3.8201   4.4104

          k = 0.5833-0.2500 1.0833 (   564 PWs)   bands (ev):

    -2.7540  -0.1285   2.3306   3.6106

          k = 0.4167-0.0833 0.9167 (   567 PWs)   bands (ev):

    -1.9186  -0.8588   2.1601   2.9391

          k =-0.2500-1.0833 0.2500 (   569 PWs)   bands (ev):

    -2.1295  -0.7692   2.0334   3.8408

          k =-0.4167 0.4167 0.4167 (   577 PWs)   bands (ev):

    -3.6696  -0.1954   5.0902   5.0903

          k = 0.4167-0.4167 1.2500 (   568 PWs)   bands (ev):

    -3.0600  -0.4936   3.2618   4.6477

     highest occupied level (ev):     6.0928

!    total energy              =     -15.74120565 Ry
     estimated scf accuracy    <       0.00000016 Ry

     The total energy is the sum of the following terms:
     one-electron contribution =       4.77920696 Ry
     hartree contribution      =       1.09374902 Ry
     xc contribution           =      -4.81323204 Ry
     ewald contribution        =     -16.80092959 Ry

     convergence has been achieved in   5 iterations

     Writing output data file ./Si_exc1.save/

     init_run     :      0.13s CPU      0.13s WALL (       1 calls)
     electrons    :      0.69s CPU      0.74s WALL (       1 calls)

     Called by init_run:
     wfcinit      :      0.07s CPU      0.07s WALL (       1 calls)
     potinit      :      0.01s CPU      0.01s WALL (       1 calls)
     hinit0       :      0.05s CPU      0.05s WALL (       1 calls)

     Called by electrons:
     c_bands      :      0.55s CPU      0.56s WALL (       6 calls)
     sum_band     :      0.10s CPU      0.10s WALL (       6 calls)
     v_of_rho     :      0.04s CPU      0.04s WALL (       6 calls)
     mix_rho      :      0.00s CPU      0.00s WALL (       6 calls)

     Called by c_bands:
     init_us_2    :      0.04s CPU      0.04s WALL (     364 calls)
     cegterg      :      0.53s CPU      0.53s WALL (     168 calls)

     Called by *egterg:
     cdiaghg      :      0.01s CPU      0.01s WALL (     588 calls)
     h_psi        :      0.53s CPU      0.53s WALL (     644 calls)
     g_psi        :      0.01s CPU      0.01s WALL (     448 calls)

     Called by h_psi:
     h_psi:calbec :      0.01s CPU      0.01s WALL (     644 calls)
     vloc_psi     :      0.50s CPU      0.50s WALL (     644 calls)
     add_vuspsi   :      0.01s CPU      0.01s WALL (     644 calls)

     General routines
     calbec       :      0.01s CPU      0.01s WALL (     644 calls)
     fft          :      0.02s CPU      0.02s WALL (      60 calls)
     ffts         :      0.00s CPU      0.00s WALL (       6 calls)
     fftw         :      0.50s CPU      0.50s WALL (    5214 calls)

     Parallel routines

     PWSCF        :      0.87s CPU      0.92s WALL


   This run was terminated on:  17: 4:49  19Sep2022            

=------------------------------------------------------------------------------=
   JOB DONE.
=------------------------------------------------------------------------------=
