
     Program PWSCF v.6.7MaX starts on 18Sep2022 at 16:13:43 

     This program is part of the open-source Quantum ESPRESSO suite
     for quantum simulation of materials; please cite
         "P. Giannozzi et al., J. Phys.:Condens. Matter 21 395502 (2009);
         "P. Giannozzi et al., J. Phys.:Condens. Matter 29 465901 (2017);
          URL http://www.quantum-espresso.org", 
     in publications or presentations arising from this work. More details at
     http://www.quantum-espresso.org/quote

     Parallel version (MPI), running on     1 processors

     MPI processes distributed on     1 nodes
     Waiting for input...
     Reading input from standard input

     Current dimensions of program PWSCF are:
     Max number of different atomic species (ntypx) = 10
     Max number of k-points (npk) =  40000
     Max angular momentum in pseudopotentials (lmaxx) =  3

     Subspace diagonalization in iterative solution of the eigenvalue problem:
     a serial algorithm will be used


     G-vector sticks info
     --------------------
     sticks:   dense  smooth     PW     G-vecs:    dense   smooth      PW
     Sum         211     211     85                 2085     2085     531



     bravais-lattice index     =            2
     lattice parameter (alat)  =      10.2600  a.u.
     unit-cell volume          =     270.0114 (a.u.)^3
     number of atoms/cell      =            2
     number of atomic types    =            1
     number of electrons       =         8.00
     number of Kohn-Sham states=            4
     kinetic-energy cutoff     =      15.0000  Ry
     charge density cutoff     =      60.0000  Ry
     scf convergence threshold =      1.0E-06
     mixing beta               =       0.7000
     number of iterations used =            8  plain     mixing
     Exchange-correlation=  SLA  PW   PBE  PBE
                           (   1   4   3   4   0   0   0)

     celldm(1)=  10.260000  celldm(2)=   0.000000  celldm(3)=   0.000000
     celldm(4)=   0.000000  celldm(5)=   0.000000  celldm(6)=   0.000000

     crystal axes: (cart. coord. in units of alat)
               a(1) = (  -0.500000   0.000000   0.500000 )  
               a(2) = (   0.000000   0.500000   0.500000 )  
               a(3) = (  -0.500000   0.500000   0.000000 )  

     reciprocal axes: (cart. coord. in units 2 pi/alat)
               b(1) = ( -1.000000 -1.000000  1.000000 )  
               b(2) = (  1.000000  1.000000  1.000000 )  
               b(3) = ( -1.000000  1.000000 -1.000000 )  


     PseudoPot. # 1 for Si read from file:
     ./Si.pbe-rrkj.UPF
     MD5 check sum: cf7ab5690cd9a85b22c4813f7e365554
     Pseudo is Norm-conserving, Zval =  4.0
     Generated by new atomic code, or converted to UPF format
     Using radial grid of  883 points,  3 beta functions with: 
                l(1) =   0
                l(2) =   0
                l(3) =   1

     atomic species   valence    mass     pseudopotential
        Si             4.00    28.08600     Si( 1.00)

     48 Sym. Ops., with inversion, found (24 have fractional translation)



   Cartesian axes

     site n.     atom                  positions (alat units)
         1           Si  tau(   1) = (   0.0000000   0.0000000   0.0000000  )
         2           Si  tau(   2) = (   0.2500000   0.2500000   0.2500000  )

     number of k points=    28
                       cart. coord. in units 2pi/alat
        k(    1) = (  -0.0833333   0.0833333   0.0833333), wk =   0.0185185
        k(    2) = (  -0.2500000   0.2500000  -0.0833333), wk =   0.0555556
        k(    3) = (  -0.4166667   0.4166667  -0.2500000), wk =   0.0555556
        k(    4) = (   0.4166667  -0.4166667   0.5833333), wk =   0.0555556
        k(    5) = (   0.2500000  -0.2500000   0.4166667), wk =   0.0555556
        k(    6) = (   0.0833333  -0.0833333   0.2500000), wk =   0.0555556
        k(    7) = (  -0.0833333   0.4166667   0.0833333), wk =   0.0555556
        k(    8) = (  -0.2500000   0.5833333  -0.0833333), wk =   0.1111111
        k(    9) = (   0.5833333  -0.2500000   0.7500000), wk =   0.1111111
        k(   10) = (   0.4166667  -0.0833333   0.5833333), wk =   0.1111111
        k(   11) = (   0.2500000   0.0833333   0.4166667), wk =   0.1111111
        k(   12) = (  -0.0833333   0.7500000   0.0833333), wk =   0.0555556
        k(   13) = (   0.7500000  -0.0833333   0.9166667), wk =   0.1111111
        k(   14) = (   0.5833333   0.0833333   0.7500000), wk =   0.1111111
        k(   15) = (   0.4166667   0.2500000   0.5833333), wk =   0.1111111
        k(   16) = (  -0.0833333  -0.9166667   0.0833333), wk =   0.0555556
        k(   17) = (  -0.2500000  -0.7500000  -0.0833333), wk =   0.1111111
        k(   18) = (  -0.0833333  -0.5833333   0.0833333), wk =   0.0555556
        k(   19) = (  -0.2500000   0.2500000   0.2500000), wk =   0.0185185
        k(   20) = (  -0.4166667   0.4166667   0.0833333), wk =   0.0555556
        k(   21) = (   0.4166667  -0.4166667   0.9166667), wk =   0.0555556
        k(   22) = (   0.2500000  -0.2500000   0.7500000), wk =   0.0555556
        k(   23) = (  -0.2500000   0.5833333   0.2500000), wk =   0.0555556
        k(   24) = (   0.5833333  -0.2500000   1.0833333), wk =   0.1111111
        k(   25) = (   0.4166667  -0.0833333   0.9166667), wk =   0.1111111
        k(   26) = (  -0.2500000  -1.0833333   0.2500000), wk =   0.0555556
        k(   27) = (  -0.4166667   0.4166667   0.4166667), wk =   0.0185185
        k(   28) = (   0.4166667  -0.4166667   1.2500000), wk =   0.0555556

     Dense  grid:     2085 G-vectors     FFT dimensions: (  20,  20,  20)

     Estimated max dynamical RAM per process >       2.10 MB

     Initial potential from superposition of free atoms

     starting charge    7.99889, renormalised to    8.00000
     Starting wfcs are    8 randomized atomic wfcs

     total cpu time spent up to now is        0.1 secs

     Self-consistent Calculation

     iteration #  1     ecut=    15.00 Ry     beta= 0.70
     Davidson diagonalization with overlap
     ethr =  1.00E-02,  avg # of iterations =  2.0

     Threshold (ethr) on eigenvalues was too large:
     Diagonalizing with lowered threshold

     Davidson diagonalization with overlap
     ethr =  5.92E-04,  avg # of iterations =  1.9

     total cpu time spent up to now is        0.2 secs

     total energy              =     -15.73358662 Ry
     estimated scf accuracy    <       0.05546184 Ry

     iteration #  2     ecut=    15.00 Ry     beta= 0.70
     Davidson diagonalization with overlap
     ethr =  6.93E-04,  avg # of iterations =  1.0

     total cpu time spent up to now is        0.2 secs

     total energy              =     -15.73536912 Ry
     estimated scf accuracy    <       0.00306869 Ry

     iteration #  3     ecut=    15.00 Ry     beta= 0.70
     Davidson diagonalization with overlap
     ethr =  3.84E-05,  avg # of iterations =  2.1

     total cpu time spent up to now is        0.2 secs

     total energy              =     -15.73598841 Ry
     estimated scf accuracy    <       0.00009221 Ry

     iteration #  4     ecut=    15.00 Ry     beta= 0.70
     Davidson diagonalization with overlap
     ethr =  1.15E-06,  avg # of iterations =  4.8

     total cpu time spent up to now is        0.3 secs

     total energy              =     -15.73606357 Ry
     estimated scf accuracy    <       0.00000310 Ry

     iteration #  5     ecut=    15.00 Ry     beta= 0.70
     Davidson diagonalization with overlap
     ethr =  3.87E-08,  avg # of iterations =  3.9

     total cpu time spent up to now is        0.3 secs

     End of self-consistent calculation

          k =-0.0833 0.0833 0.0833 (   271 PWs)   bands (ev):

    -5.5792   5.3986   6.1010   6.1010

          k =-0.2500 0.2500-0.0833 (   275 PWs)   bands (ev):

    -5.1006   3.3291   4.8643   5.8916

          k =-0.4167 0.4167-0.2500 (   264 PWs)   bands (ev):

    -4.0019   0.5605   4.4058   5.2572

          k = 0.4167-0.4167 0.5833 (   263 PWs)   bands (ev):

    -3.2959  -0.5907   4.4772   4.8733

          k = 0.2500-0.2500 0.4167 (   269 PWs)   bands (ev):

    -4.4165   1.4098   4.9313   4.9747

          k = 0.0833-0.0833 0.2500 (   270 PWs)   bands (ev):

    -5.3374   4.3418   5.4528   5.6474

          k =-0.0833 0.4167 0.0833 (   275 PWs)   bands (ev):

    -4.8586   3.1541   4.7127   4.7204

          k =-0.2500 0.5833-0.0833 (   267 PWs)   bands (ev):

    -3.9433   1.3147   3.3889   4.3363

          k = 0.5833-0.2500 0.7500 (   262 PWs)   bands (ev):

    -2.8166  -0.4498   2.7912   4.1080

          k = 0.4167-0.0833 0.5833 (   264 PWs)   bands (ev):

    -3.5459   0.6175   2.7442   4.5965

          k = 0.2500 0.0833 0.4167 (   270 PWs)   bands (ev):

    -4.6316   2.3093   4.0881   5.2679

          k =-0.0833 0.7500 0.0833 (   263 PWs)   bands (ev):

    -3.2294   0.4971   3.3502   3.6915

          k = 0.7500-0.0833 0.9167 (   262 PWs)   bands (ev):

    -2.0258  -0.8473   2.5026   3.2828

          k = 0.5833 0.0833 0.7500 (   264 PWs)   bands (ev):

    -2.3957  -0.5191   2.0182   3.8304

          k = 0.4167 0.2500 0.5833 (   262 PWs)   bands (ev):

    -3.4318  -0.0817   3.6980   4.6955

          k =-0.0833-0.9167 0.0833 (   261 PWs)   bands (ev):

    -2.1191  -0.8554   3.0792   3.4777

          k =-0.2500-0.7500-0.0833 (   261 PWs)   bands (ev):

    -3.0582   0.2704   2.8286   3.6241

          k =-0.0833-0.5833 0.0833 (   265 PWs)   bands (ev):

    -4.1502   1.8615   3.8989   4.1150

          k =-0.2500 0.2500 0.2500 (   274 PWs)   bands (ev):

    -4.8706   2.3446   5.4863   5.4863

          k =-0.4167 0.4167 0.0833 (   267 PWs)   bands (ev):

    -4.1877   1.4214   3.3533   5.3184

          k = 0.4167-0.4167 0.9167 (   265 PWs)   bands (ev):

    -3.0007  -0.0168   2.2406   4.5291

          k = 0.2500-0.2500 0.7500 (   262 PWs)   bands (ev):

    -2.9476  -0.0955   2.7242   4.0467

          k =-0.2500 0.5833 0.2500 (   265 PWs)   bands (ev):

    -3.7606   0.6095   3.8277   4.4213

          k = 0.5833-0.2500 1.0833 (   260 PWs)   bands (ev):

    -2.7521  -0.1232   2.3405   3.6215

          k = 0.4167-0.0833 0.9167 (   263 PWs)   bands (ev):

    -1.9171  -0.8555   2.1703   2.9498

          k =-0.2500-1.0833 0.2500 (   267 PWs)   bands (ev):

    -2.1282  -0.7666   2.0432   3.8505

          k =-0.4167 0.4167 0.4167 (   269 PWs)   bands (ev):

    -3.6693  -0.1896   5.0999   5.0999

          k = 0.4167-0.4167 1.2500 (   261 PWs)   bands (ev):

    -3.0589  -0.4868   3.2720   4.6581

     highest occupied level (ev):     6.1010

!    total energy              =     -15.73606565 Ry
     estimated scf accuracy    <       0.00000017 Ry

     The total energy is the sum of the following terms:
     one-electron contribution =       4.78383944 Ry
     hartree contribution      =       1.09207591 Ry
     xc contribution           =      -4.81105139 Ry
     ewald contribution        =     -16.80092960 Ry

     convergence has been achieved in   5 iterations

     Writing output data file ./Si_exc1.save/

     init_run     :      0.06s CPU      0.06s WALL (       1 calls)
     electrons    :      0.25s CPU      0.25s WALL (       1 calls)

     Called by init_run:
     wfcinit      :      0.03s CPU      0.03s WALL (       1 calls)
     potinit      :      0.01s CPU      0.01s WALL (       1 calls)
     hinit0       :      0.03s CPU      0.03s WALL (       1 calls)

     Called by electrons:
     c_bands      :      0.19s CPU      0.20s WALL (       6 calls)
     sum_band     :      0.03s CPU      0.03s WALL (       6 calls)
     v_of_rho     :      0.02s CPU      0.02s WALL (       6 calls)
     mix_rho      :      0.00s CPU      0.00s WALL (       6 calls)

     Called by c_bands:
     init_us_2    :      0.02s CPU      0.02s WALL (     364 calls)
     cegterg      :      0.18s CPU      0.19s WALL (     168 calls)

     Called by *egterg:
     cdiaghg      :      0.01s CPU      0.01s WALL (     579 calls)
     h_psi        :      0.16s CPU      0.17s WALL (     635 calls)
     g_psi        :      0.00s CPU      0.00s WALL (     439 calls)

     Called by h_psi:
     h_psi:calbec :      0.01s CPU      0.01s WALL (     635 calls)
     vloc_psi     :      0.15s CPU      0.15s WALL (     635 calls)
     add_vuspsi   :      0.01s CPU      0.01s WALL (     635 calls)

     General routines
     calbec       :      0.01s CPU      0.01s WALL (     635 calls)
     fft          :      0.00s CPU      0.00s WALL (      60 calls)
     ffts         :      0.00s CPU      0.00s WALL (       6 calls)
     fftw         :      0.13s CPU      0.14s WALL (    5156 calls)

     Parallel routines

     PWSCF        :      0.34s CPU      0.36s WALL


   This run was terminated on:  16:13:43  18Sep2022            

=------------------------------------------------------------------------------=
   JOB DONE.
=------------------------------------------------------------------------------=
