
     Program PWSCF v.6.7MaX starts on 18Sep2022 at 16:13:45 

     This program is part of the open-source Quantum ESPRESSO suite
     for quantum simulation of materials; please cite
         "P. Giannozzi et al., J. Phys.:Condens. Matter 21 395502 (2009);
         "P. Giannozzi et al., J. Phys.:Condens. Matter 29 465901 (2017);
          URL http://www.quantum-espresso.org", 
     in publications or presentations arising from this work. More details at
     http://www.quantum-espresso.org/quote

     Parallel version (MPI), running on     1 processors

     MPI processes distributed on     1 nodes
     Waiting for input...
     Reading input from standard input

     Current dimensions of program PWSCF are:
     Max number of different atomic species (ntypx) = 10
     Max number of k-points (npk) =  40000
     Max angular momentum in pseudopotentials (lmaxx) =  3

     Subspace diagonalization in iterative solution of the eigenvalue problem:
     a serial algorithm will be used


     G-vector sticks info
     --------------------
     sticks:   dense  smooth     PW     G-vecs:    dense   smooth      PW
     Sum         433     433    151                 5961     5961    1139



     bravais-lattice index     =            2
     lattice parameter (alat)  =      10.2600  a.u.
     unit-cell volume          =     270.0114 (a.u.)^3
     number of atoms/cell      =            2
     number of atomic types    =            1
     number of electrons       =         8.00
     number of Kohn-Sham states=            4
     kinetic-energy cutoff     =      30.0000  Ry
     charge density cutoff     =     120.0000  Ry
     scf convergence threshold =      1.0E-06
     mixing beta               =       0.7000
     number of iterations used =            8  plain     mixing
     Exchange-correlation=  SLA  PW   PBE  PBE
                           (   1   4   3   4   0   0   0)

     celldm(1)=  10.260000  celldm(2)=   0.000000  celldm(3)=   0.000000
     celldm(4)=   0.000000  celldm(5)=   0.000000  celldm(6)=   0.000000

     crystal axes: (cart. coord. in units of alat)
               a(1) = (  -0.500000   0.000000   0.500000 )  
               a(2) = (   0.000000   0.500000   0.500000 )  
               a(3) = (  -0.500000   0.500000   0.000000 )  

     reciprocal axes: (cart. coord. in units 2 pi/alat)
               b(1) = ( -1.000000 -1.000000  1.000000 )  
               b(2) = (  1.000000  1.000000  1.000000 )  
               b(3) = ( -1.000000  1.000000 -1.000000 )  


     PseudoPot. # 1 for Si read from file:
     ./Si.pbe-rrkj.UPF
     MD5 check sum: cf7ab5690cd9a85b22c4813f7e365554
     Pseudo is Norm-conserving, Zval =  4.0
     Generated by new atomic code, or converted to UPF format
     Using radial grid of  883 points,  3 beta functions with: 
                l(1) =   0
                l(2) =   0
                l(3) =   1

     atomic species   valence    mass     pseudopotential
        Si             4.00    28.08600     Si( 1.00)

     48 Sym. Ops., with inversion, found (24 have fractional translation)



   Cartesian axes

     site n.     atom                  positions (alat units)
         1           Si  tau(   1) = (   0.0000000   0.0000000   0.0000000  )
         2           Si  tau(   2) = (   0.2500000   0.2500000   0.2500000  )

     number of k points=    28
                       cart. coord. in units 2pi/alat
        k(    1) = (  -0.0833333   0.0833333   0.0833333), wk =   0.0185185
        k(    2) = (  -0.2500000   0.2500000  -0.0833333), wk =   0.0555556
        k(    3) = (  -0.4166667   0.4166667  -0.2500000), wk =   0.0555556
        k(    4) = (   0.4166667  -0.4166667   0.5833333), wk =   0.0555556
        k(    5) = (   0.2500000  -0.2500000   0.4166667), wk =   0.0555556
        k(    6) = (   0.0833333  -0.0833333   0.2500000), wk =   0.0555556
        k(    7) = (  -0.0833333   0.4166667   0.0833333), wk =   0.0555556
        k(    8) = (  -0.2500000   0.5833333  -0.0833333), wk =   0.1111111
        k(    9) = (   0.5833333  -0.2500000   0.7500000), wk =   0.1111111
        k(   10) = (   0.4166667  -0.0833333   0.5833333), wk =   0.1111111
        k(   11) = (   0.2500000   0.0833333   0.4166667), wk =   0.1111111
        k(   12) = (  -0.0833333   0.7500000   0.0833333), wk =   0.0555556
        k(   13) = (   0.7500000  -0.0833333   0.9166667), wk =   0.1111111
        k(   14) = (   0.5833333   0.0833333   0.7500000), wk =   0.1111111
        k(   15) = (   0.4166667   0.2500000   0.5833333), wk =   0.1111111
        k(   16) = (  -0.0833333  -0.9166667   0.0833333), wk =   0.0555556
        k(   17) = (  -0.2500000  -0.7500000  -0.0833333), wk =   0.1111111
        k(   18) = (  -0.0833333  -0.5833333   0.0833333), wk =   0.0555556
        k(   19) = (  -0.2500000   0.2500000   0.2500000), wk =   0.0185185
        k(   20) = (  -0.4166667   0.4166667   0.0833333), wk =   0.0555556
        k(   21) = (   0.4166667  -0.4166667   0.9166667), wk =   0.0555556
        k(   22) = (   0.2500000  -0.2500000   0.7500000), wk =   0.0555556
        k(   23) = (  -0.2500000   0.5833333   0.2500000), wk =   0.0555556
        k(   24) = (   0.5833333  -0.2500000   1.0833333), wk =   0.1111111
        k(   25) = (   0.4166667  -0.0833333   0.9166667), wk =   0.1111111
        k(   26) = (  -0.2500000  -1.0833333   0.2500000), wk =   0.0555556
        k(   27) = (  -0.4166667   0.4166667   0.4166667), wk =   0.0185185
        k(   28) = (   0.4166667  -0.4166667   1.2500000), wk =   0.0555556

     Dense  grid:     5961 G-vectors     FFT dimensions: (  32,  32,  32)

     Estimated max dynamical RAM per process >       6.51 MB

     Initial potential from superposition of free atoms

     starting charge    7.99889, renormalised to    8.00000
     Starting wfcs are    8 randomized atomic wfcs

     total cpu time spent up to now is        0.2 secs

     Self-consistent Calculation

     iteration #  1     ecut=    30.00 Ry     beta= 0.70
     Davidson diagonalization with overlap
     ethr =  1.00E-02,  avg # of iterations =  2.0

     Threshold (ethr) on eigenvalues was too large:
     Diagonalizing with lowered threshold

     Davidson diagonalization with overlap
     ethr =  5.94E-04,  avg # of iterations =  1.9

     total cpu time spent up to now is        0.7 secs

     total energy              =     -15.73872977 Ry
     estimated scf accuracy    <       0.05559671 Ry

     iteration #  2     ecut=    30.00 Ry     beta= 0.70
     Davidson diagonalization with overlap
     ethr =  6.95E-04,  avg # of iterations =  1.0

     total cpu time spent up to now is        0.9 secs

     total energy              =     -15.74058146 Ry
     estimated scf accuracy    <       0.00313077 Ry

     iteration #  3     ecut=    30.00 Ry     beta= 0.70
     Davidson diagonalization with overlap
     ethr =  3.91E-05,  avg # of iterations =  2.1

     total cpu time spent up to now is        1.1 secs

     total energy              =     -15.74122062 Ry
     estimated scf accuracy    <       0.00009734 Ry

     iteration #  4     ecut=    30.00 Ry     beta= 0.70
     Davidson diagonalization with overlap
     ethr =  1.22E-06,  avg # of iterations =  4.7

     total cpu time spent up to now is        1.4 secs

     total energy              =     -15.74129427 Ry
     estimated scf accuracy    <       0.00000510 Ry

     iteration #  5     ecut=    30.00 Ry     beta= 0.70
     Davidson diagonalization with overlap
     ethr =  6.38E-08,  avg # of iterations =  4.1

     total cpu time spent up to now is        1.7 secs

     End of self-consistent calculation

          k =-0.0833 0.0833 0.0833 (   737 PWs)   bands (ev):

    -5.5793   5.3908   6.0929   6.0929

          k =-0.2500 0.2500-0.0833 (   756 PWs)   bands (ev):

    -5.1008   3.3227   4.8577   5.8838

          k =-0.4167 0.4167-0.2500 (   752 PWs)   bands (ev):

    -4.0026   0.5542   4.3974   5.2458

          k = 0.4167-0.4167 0.5833 (   751 PWs)   bands (ev):

    -3.2962  -0.5982   4.4668   4.8638

          k = 0.2500-0.2500 0.4167 (   758 PWs)   bands (ev):

    -4.4171   1.4037   4.9227   4.9672

          k = 0.0833-0.0833 0.2500 (   755 PWs)   bands (ev):

    -5.3378   4.3336   5.4448   5.6396

          k =-0.0833 0.4167 0.0833 (   750 PWs)   bands (ev):

    -4.8589   3.1480   4.7052   4.7128

          k =-0.2500 0.5833-0.0833 (   750 PWs)   bands (ev):

    -3.9446   1.3094   3.3805   4.3269

          k = 0.5833-0.2500 0.7500 (   746 PWs)   bands (ev):

    -2.8182  -0.4559   2.7832   4.0969

          k = 0.4167-0.0833 0.5833 (   753 PWs)   bands (ev):

    -3.5472   0.6118   2.7353   4.5870

          k = 0.2500 0.0833 0.4167 (   756 PWs)   bands (ev):

    -4.6323   2.3037   4.0802   5.2599

          k =-0.0833 0.7500 0.0833 (   752 PWs)   bands (ev):

    -3.2311   0.4912   3.3394   3.6812

          k = 0.7500-0.0833 0.9167 (   745 PWs)   bands (ev):

    -2.0287  -0.8510   2.4916   3.2720

          k = 0.5833 0.0833 0.7500 (   743 PWs)   bands (ev):

    -2.3970  -0.5228   2.0087   3.8202

          k = 0.4167 0.2500 0.5833 (   752 PWs)   bands (ev):

    -3.4325  -0.0884   3.6892   4.6852

          k =-0.0833-0.9167 0.0833 (   749 PWs)   bands (ev):

    -2.1229  -0.8600   3.0684   3.4652

          k =-0.2500-0.7500-0.0833 (   750 PWs)   bands (ev):

    -3.0607   0.2654   2.8184   3.6133

          k =-0.0833-0.5833 0.0833 (   743 PWs)   bands (ev):

    -4.1515   1.8558   3.8885   4.1046

          k =-0.2500 0.2500 0.2500 (   754 PWs)   bands (ev):

    -4.8702   2.3393   5.4788   5.4788

          k =-0.4167 0.4167 0.0833 (   748 PWs)   bands (ev):

    -4.1880   1.4156   3.3456   5.3098

          k = 0.4167-0.4167 0.9167 (   749 PWs)   bands (ev):

    -3.0014  -0.0222   2.2316   4.5203

          k = 0.2500-0.2500 0.7500 (   748 PWs)   bands (ev):

    -2.9499  -0.1012   2.7153   4.0361

          k =-0.2500 0.5833 0.2500 (   754 PWs)   bands (ev):

    -3.7616   0.6034   3.8202   4.4105

          k = 0.5833-0.2500 1.0833 (   746 PWs)   bands (ev):

    -2.7541  -0.1285   2.3307   3.6107

          k = 0.4167-0.0833 0.9167 (   745 PWs)   bands (ev):

    -1.9187  -0.8588   2.1602   2.9392

          k =-0.2500-1.0833 0.2500 (   744 PWs)   bands (ev):

    -2.1295  -0.7692   2.0335   3.8409

          k =-0.4167 0.4167 0.4167 (   760 PWs)   bands (ev):

    -3.6697  -0.1954   5.0904   5.0904

          k = 0.4167-0.4167 1.2500 (   749 PWs)   bands (ev):

    -3.0601  -0.4935   3.2619   4.6478

     highest occupied level (ev):     6.0929

!    total energy              =     -15.74129744 Ry
     estimated scf accuracy    <       0.00000022 Ry

     The total energy is the sum of the following terms:
     one-electron contribution =       4.77905416 Ry
     hartree contribution      =       1.09374591 Ry
     xc contribution           =      -4.81316790 Ry
     ewald contribution        =     -16.80092961 Ry

     convergence has been achieved in   5 iterations

     Writing output data file ./Si_exc1.save/

     init_run     :      0.20s CPU      0.21s WALL (       1 calls)
     electrons    :      1.46s CPU      1.52s WALL (       1 calls)

     Called by init_run:
     wfcinit      :      0.13s CPU      0.14s WALL (       1 calls)
     potinit      :      0.02s CPU      0.02s WALL (       1 calls)
     hinit0       :      0.04s CPU      0.04s WALL (       1 calls)

     Called by electrons:
     c_bands      :      1.17s CPU      1.18s WALL (       6 calls)
     sum_band     :      0.21s CPU      0.21s WALL (       6 calls)
     v_of_rho     :      0.09s CPU      0.10s WALL (       6 calls)
     mix_rho      :      0.00s CPU      0.00s WALL (       6 calls)

     Called by c_bands:
     init_us_2    :      0.05s CPU      0.05s WALL (     364 calls)
     cegterg      :      1.14s CPU      1.15s WALL (     168 calls)

     Called by *egterg:
     cdiaghg      :      0.01s CPU      0.02s WALL (     584 calls)
     h_psi        :      1.19s CPU      1.20s WALL (     640 calls)
     g_psi        :      0.01s CPU      0.01s WALL (     444 calls)

     Called by h_psi:
     h_psi:calbec :      0.02s CPU      0.02s WALL (     640 calls)
     vloc_psi     :      1.16s CPU      1.17s WALL (     640 calls)
     add_vuspsi   :      0.01s CPU      0.01s WALL (     640 calls)

     General routines
     calbec       :      0.02s CPU      0.02s WALL (     640 calls)
     fft          :      0.02s CPU      0.02s WALL (      60 calls)
     ffts         :      0.00s CPU      0.00s WALL (       6 calls)
     fftw         :      1.12s CPU      1.13s WALL (    5148 calls)

     Parallel routines

     PWSCF        :      1.70s CPU      1.78s WALL


   This run was terminated on:  16:13:47  18Sep2022            

=------------------------------------------------------------------------------=
   JOB DONE.
=------------------------------------------------------------------------------=
