
     Program PWSCF v.6.7MaX starts on 18Sep2022 at 16:13:47 

     This program is part of the open-source Quantum ESPRESSO suite
     for quantum simulation of materials; please cite
         "P. Giannozzi et al., J. Phys.:Condens. Matter 21 395502 (2009);
         "P. Giannozzi et al., J. Phys.:Condens. Matter 29 465901 (2017);
          URL http://www.quantum-espresso.org", 
     in publications or presentations arising from this work. More details at
     http://www.quantum-espresso.org/quote

     Parallel version (MPI), running on     1 processors

     MPI processes distributed on     1 nodes
     Waiting for input...
     Reading input from standard input

     Current dimensions of program PWSCF are:
     Max number of different atomic species (ntypx) = 10
     Max number of k-points (npk) =  40000
     Max angular momentum in pseudopotentials (lmaxx) =  3

     Subspace diagonalization in iterative solution of the eigenvalue problem:
     a serial algorithm will be used


     G-vector sticks info
     --------------------
     sticks:   dense  smooth     PW     G-vecs:    dense   smooth      PW
     Sum         511     511    163                 7631     7631    1411



     bravais-lattice index     =            2
     lattice parameter (alat)  =      10.2600  a.u.
     unit-cell volume          =     270.0114 (a.u.)^3
     number of atoms/cell      =            2
     number of atomic types    =            1
     number of electrons       =         8.00
     number of Kohn-Sham states=            4
     kinetic-energy cutoff     =      35.0000  Ry
     charge density cutoff     =     140.0000  Ry
     scf convergence threshold =      1.0E-06
     mixing beta               =       0.7000
     number of iterations used =            8  plain     mixing
     Exchange-correlation=  SLA  PW   PBE  PBE
                           (   1   4   3   4   0   0   0)

     celldm(1)=  10.260000  celldm(2)=   0.000000  celldm(3)=   0.000000
     celldm(4)=   0.000000  celldm(5)=   0.000000  celldm(6)=   0.000000

     crystal axes: (cart. coord. in units of alat)
               a(1) = (  -0.500000   0.000000   0.500000 )  
               a(2) = (   0.000000   0.500000   0.500000 )  
               a(3) = (  -0.500000   0.500000   0.000000 )  

     reciprocal axes: (cart. coord. in units 2 pi/alat)
               b(1) = ( -1.000000 -1.000000  1.000000 )  
               b(2) = (  1.000000  1.000000  1.000000 )  
               b(3) = ( -1.000000  1.000000 -1.000000 )  


     PseudoPot. # 1 for Si read from file:
     ./Si.pbe-rrkj.UPF
     MD5 check sum: cf7ab5690cd9a85b22c4813f7e365554
     Pseudo is Norm-conserving, Zval =  4.0
     Generated by new atomic code, or converted to UPF format
     Using radial grid of  883 points,  3 beta functions with: 
                l(1) =   0
                l(2) =   0
                l(3) =   1

     atomic species   valence    mass     pseudopotential
        Si             4.00    28.08600     Si( 1.00)

     48 Sym. Ops., with inversion, found (24 have fractional translation)



   Cartesian axes

     site n.     atom                  positions (alat units)
         1           Si  tau(   1) = (   0.0000000   0.0000000   0.0000000  )
         2           Si  tau(   2) = (   0.2500000   0.2500000   0.2500000  )

     number of k points=    28
                       cart. coord. in units 2pi/alat
        k(    1) = (  -0.0833333   0.0833333   0.0833333), wk =   0.0185185
        k(    2) = (  -0.2500000   0.2500000  -0.0833333), wk =   0.0555556
        k(    3) = (  -0.4166667   0.4166667  -0.2500000), wk =   0.0555556
        k(    4) = (   0.4166667  -0.4166667   0.5833333), wk =   0.0555556
        k(    5) = (   0.2500000  -0.2500000   0.4166667), wk =   0.0555556
        k(    6) = (   0.0833333  -0.0833333   0.2500000), wk =   0.0555556
        k(    7) = (  -0.0833333   0.4166667   0.0833333), wk =   0.0555556
        k(    8) = (  -0.2500000   0.5833333  -0.0833333), wk =   0.1111111
        k(    9) = (   0.5833333  -0.2500000   0.7500000), wk =   0.1111111
        k(   10) = (   0.4166667  -0.0833333   0.5833333), wk =   0.1111111
        k(   11) = (   0.2500000   0.0833333   0.4166667), wk =   0.1111111
        k(   12) = (  -0.0833333   0.7500000   0.0833333), wk =   0.0555556
        k(   13) = (   0.7500000  -0.0833333   0.9166667), wk =   0.1111111
        k(   14) = (   0.5833333   0.0833333   0.7500000), wk =   0.1111111
        k(   15) = (   0.4166667   0.2500000   0.5833333), wk =   0.1111111
        k(   16) = (  -0.0833333  -0.9166667   0.0833333), wk =   0.0555556
        k(   17) = (  -0.2500000  -0.7500000  -0.0833333), wk =   0.1111111
        k(   18) = (  -0.0833333  -0.5833333   0.0833333), wk =   0.0555556
        k(   19) = (  -0.2500000   0.2500000   0.2500000), wk =   0.0185185
        k(   20) = (  -0.4166667   0.4166667   0.0833333), wk =   0.0555556
        k(   21) = (   0.4166667  -0.4166667   0.9166667), wk =   0.0555556
        k(   22) = (   0.2500000  -0.2500000   0.7500000), wk =   0.0555556
        k(   23) = (  -0.2500000   0.5833333   0.2500000), wk =   0.0555556
        k(   24) = (   0.5833333  -0.2500000   1.0833333), wk =   0.1111111
        k(   25) = (   0.4166667  -0.0833333   0.9166667), wk =   0.1111111
        k(   26) = (  -0.2500000  -1.0833333   0.2500000), wk =   0.0555556
        k(   27) = (  -0.4166667   0.4166667   0.4166667), wk =   0.0185185
        k(   28) = (   0.4166667  -0.4166667   1.2500000), wk =   0.0555556

     Dense  grid:     7631 G-vectors     FFT dimensions: (  32,  32,  32)

     Estimated max dynamical RAM per process >       7.63 MB

     Initial potential from superposition of free atoms

     starting charge    7.99889, renormalised to    8.00000
     Starting wfcs are    8 randomized atomic wfcs

     total cpu time spent up to now is        0.2 secs

     Self-consistent Calculation

     iteration #  1     ecut=    35.00 Ry     beta= 0.70
     Davidson diagonalization with overlap
     ethr =  1.00E-02,  avg # of iterations =  2.0

     Threshold (ethr) on eigenvalues was too large:
     Diagonalizing with lowered threshold

     Davidson diagonalization with overlap
     ethr =  5.94E-04,  avg # of iterations =  2.0

     total cpu time spent up to now is        0.7 secs

     total energy              =     -15.73875889 Ry
     estimated scf accuracy    <       0.05569342 Ry

     iteration #  2     ecut=    35.00 Ry     beta= 0.70
     Davidson diagonalization with overlap
     ethr =  6.96E-04,  avg # of iterations =  1.0

     total cpu time spent up to now is        0.9 secs

     total energy              =     -15.74063312 Ry
     estimated scf accuracy    <       0.00311668 Ry

     iteration #  3     ecut=    35.00 Ry     beta= 0.70
     Davidson diagonalization with overlap
     ethr =  3.90E-05,  avg # of iterations =  2.1

     total cpu time spent up to now is        1.1 secs

     total energy              =     -15.74126613 Ry
     estimated scf accuracy    <       0.00009516 Ry

     iteration #  4     ecut=    35.00 Ry     beta= 0.70
     Davidson diagonalization with overlap
     ethr =  1.19E-06,  avg # of iterations =  4.6

     total cpu time spent up to now is        1.4 secs

     total energy              =     -15.74134378 Ry
     estimated scf accuracy    <       0.00000377 Ry

     iteration #  5     ecut=    35.00 Ry     beta= 0.70
     Davidson diagonalization with overlap
     ethr =  4.72E-08,  avg # of iterations =  4.4

     total cpu time spent up to now is        1.7 secs

     End of self-consistent calculation

          k =-0.0833 0.0833 0.0833 (   941 PWs)   bands (ev):

    -5.5794   5.3905   6.0927   6.0927

          k =-0.2500 0.2500-0.0833 (   931 PWs)   bands (ev):

    -5.1010   3.3225   4.8575   5.8835

          k =-0.4167 0.4167-0.2500 (   938 PWs)   bands (ev):

    -4.0027   0.5540   4.3972   5.2456

          k = 0.4167-0.4167 0.5833 (   942 PWs)   bands (ev):

    -3.2964  -0.5984   4.4665   4.8636

          k = 0.2500-0.2500 0.4167 (   940 PWs)   bands (ev):

    -4.4173   1.4035   4.9224   4.9670

          k = 0.0833-0.0833 0.2500 (   932 PWs)   bands (ev):

    -5.3379   4.3333   5.4446   5.6394

          k =-0.0833 0.4167 0.0833 (   944 PWs)   bands (ev):

    -4.8591   3.1478   4.7050   4.7125

          k =-0.2500 0.5833-0.0833 (   946 PWs)   bands (ev):

    -3.9448   1.3092   3.3803   4.3266

          k = 0.5833-0.2500 0.7500 (   950 PWs)   bands (ev):

    -2.8184  -0.4562   2.7830   4.0967

          k = 0.4167-0.0833 0.5833 (   942 PWs)   bands (ev):

    -3.5474   0.6116   2.7350   4.5867

          k = 0.2500 0.0833 0.4167 (   942 PWs)   bands (ev):

    -4.6325   2.3035   4.0800   5.2597

          k =-0.0833 0.7500 0.0833 (   950 PWs)   bands (ev):

    -3.2313   0.4910   3.3392   3.6809

          k = 0.7500-0.0833 0.9167 (   947 PWs)   bands (ev):

    -2.0289  -0.8512   2.4914   3.2718

          k = 0.5833 0.0833 0.7500 (   946 PWs)   bands (ev):

    -2.3972  -0.5230   2.0085   3.8200

          k = 0.4167 0.2500 0.5833 (   941 PWs)   bands (ev):

    -3.4327  -0.0886   3.6889   4.6849

          k =-0.0833-0.9167 0.0833 (   954 PWs)   bands (ev):

    -2.1232  -0.8602   3.0681   3.4650

          k =-0.2500-0.7500-0.0833 (   947 PWs)   bands (ev):

    -3.0609   0.2652   2.8182   3.6131

          k =-0.0833-0.5833 0.0833 (   945 PWs)   bands (ev):

    -4.1517   1.8556   3.8883   4.1044

          k =-0.2500 0.2500 0.2500 (   941 PWs)   bands (ev):

    -4.8704   2.3391   5.4785   5.4785

          k =-0.4167 0.4167 0.0833 (   942 PWs)   bands (ev):

    -4.1882   1.4154   3.3454   5.3096

          k = 0.4167-0.4167 0.9167 (   948 PWs)   bands (ev):

    -3.0016  -0.0224   2.2314   4.5200

          k = 0.2500-0.2500 0.7500 (   948 PWs)   bands (ev):

    -2.9501  -0.1014   2.7151   4.0358

          k =-0.2500 0.5833 0.2500 (   944 PWs)   bands (ev):

    -3.7618   0.6032   3.8199   4.4103

          k = 0.5833-0.2500 1.0833 (   940 PWs)   bands (ev):

    -2.7543  -0.1287   2.3305   3.6105

          k = 0.4167-0.0833 0.9167 (   943 PWs)   bands (ev):

    -1.9189  -0.8590   2.1600   2.9390

          k =-0.2500-1.0833 0.2500 (   947 PWs)   bands (ev):

    -2.1297  -0.7694   2.0333   3.8407

          k =-0.4167 0.4167 0.4167 (   941 PWs)   bands (ev):

    -3.6699  -0.1956   5.0901   5.0901

          k = 0.4167-0.4167 1.2500 (   941 PWs)   bands (ev):

    -3.0603  -0.4938   3.2617   4.6476

     highest occupied level (ev):     6.0927

!    total energy              =     -15.74134657 Ry
     estimated scf accuracy    <       0.00000017 Ry

     The total energy is the sum of the following terms:
     one-electron contribution =       4.77895165 Ry
     hartree contribution      =       1.09376453 Ry
     xc contribution           =      -4.81313315 Ry
     ewald contribution        =     -16.80092959 Ry

     convergence has been achieved in   5 iterations

     Writing output data file ./Si_exc1.save/

     init_run     :      0.20s CPU      0.21s WALL (       1 calls)
     electrons    :      1.44s CPU      1.51s WALL (       1 calls)

     Called by init_run:
     wfcinit      :      0.13s CPU      0.14s WALL (       1 calls)
     potinit      :      0.02s CPU      0.02s WALL (       1 calls)
     hinit0       :      0.05s CPU      0.05s WALL (       1 calls)

     Called by electrons:
     c_bands      :      1.16s CPU      1.17s WALL (       6 calls)
     sum_band     :      0.20s CPU      0.21s WALL (       6 calls)
     v_of_rho     :      0.09s CPU      0.10s WALL (       6 calls)
     mix_rho      :      0.00s CPU      0.00s WALL (       6 calls)

     Called by c_bands:
     init_us_2    :      0.06s CPU      0.06s WALL (     364 calls)
     cegterg      :      1.12s CPU      1.13s WALL (     168 calls)

     Called by *egterg:
     cdiaghg      :      0.01s CPU      0.02s WALL (     591 calls)
     h_psi        :      1.15s CPU      1.17s WALL (     647 calls)
     g_psi        :      0.01s CPU      0.01s WALL (     451 calls)

     Called by h_psi:
     h_psi:calbec :      0.02s CPU      0.02s WALL (     647 calls)
     vloc_psi     :      1.11s CPU      1.13s WALL (     647 calls)
     add_vuspsi   :      0.02s CPU      0.02s WALL (     647 calls)

     General routines
     calbec       :      0.02s CPU      0.02s WALL (     647 calls)
     fft          :      0.02s CPU      0.02s WALL (      60 calls)
     ffts         :      0.00s CPU      0.00s WALL (       6 calls)
     fftw         :      1.06s CPU      1.08s WALL (    5190 calls)

     Parallel routines

     PWSCF        :      1.69s CPU      1.78s WALL


   This run was terminated on:  16:13:49  18Sep2022            

=------------------------------------------------------------------------------=
   JOB DONE.
=------------------------------------------------------------------------------=
