
     Program PWSCF v.6.7MaX starts on 18Sep2022 at 16:13:53 

     This program is part of the open-source Quantum ESPRESSO suite
     for quantum simulation of materials; please cite
         "P. Giannozzi et al., J. Phys.:Condens. Matter 21 395502 (2009);
         "P. Giannozzi et al., J. Phys.:Condens. Matter 29 465901 (2017);
          URL http://www.quantum-espresso.org", 
     in publications or presentations arising from this work. More details at
     http://www.quantum-espresso.org/quote

     Parallel version (MPI), running on     1 processors

     MPI processes distributed on     1 nodes
     Waiting for input...
     Reading input from standard input

     Current dimensions of program PWSCF are:
     Max number of different atomic species (ntypx) = 10
     Max number of k-points (npk) =  40000
     Max angular momentum in pseudopotentials (lmaxx) =  3

     Subspace diagonalization in iterative solution of the eigenvalue problem:
     a serial algorithm will be used


     G-vector sticks info
     --------------------
     sticks:   dense  smooth     PW     G-vecs:    dense   smooth      PW
     Sum         733     733    223                12939    12939    2229



     bravais-lattice index     =            2
     lattice parameter (alat)  =      10.2600  a.u.
     unit-cell volume          =     270.0114 (a.u.)^3
     number of atoms/cell      =            2
     number of atomic types    =            1
     number of electrons       =         8.00
     number of Kohn-Sham states=            4
     kinetic-energy cutoff     =      50.0000  Ry
     charge density cutoff     =     200.0000  Ry
     scf convergence threshold =      1.0E-06
     mixing beta               =       0.7000
     number of iterations used =            8  plain     mixing
     Exchange-correlation=  SLA  PW   PBE  PBE
                           (   1   4   3   4   0   0   0)

     celldm(1)=  10.260000  celldm(2)=   0.000000  celldm(3)=   0.000000
     celldm(4)=   0.000000  celldm(5)=   0.000000  celldm(6)=   0.000000

     crystal axes: (cart. coord. in units of alat)
               a(1) = (  -0.500000   0.000000   0.500000 )  
               a(2) = (   0.000000   0.500000   0.500000 )  
               a(3) = (  -0.500000   0.500000   0.000000 )  

     reciprocal axes: (cart. coord. in units 2 pi/alat)
               b(1) = ( -1.000000 -1.000000  1.000000 )  
               b(2) = (  1.000000  1.000000  1.000000 )  
               b(3) = ( -1.000000  1.000000 -1.000000 )  


     PseudoPot. # 1 for Si read from file:
     ./Si.pbe-rrkj.UPF
     MD5 check sum: cf7ab5690cd9a85b22c4813f7e365554
     Pseudo is Norm-conserving, Zval =  4.0
     Generated by new atomic code, or converted to UPF format
     Using radial grid of  883 points,  3 beta functions with: 
                l(1) =   0
                l(2) =   0
                l(3) =   1

     atomic species   valence    mass     pseudopotential
        Si             4.00    28.08600     Si( 1.00)

     48 Sym. Ops., with inversion, found (24 have fractional translation)



   Cartesian axes

     site n.     atom                  positions (alat units)
         1           Si  tau(   1) = (   0.0000000   0.0000000   0.0000000  )
         2           Si  tau(   2) = (   0.2500000   0.2500000   0.2500000  )

     number of k points=    28
                       cart. coord. in units 2pi/alat
        k(    1) = (  -0.0833333   0.0833333   0.0833333), wk =   0.0185185
        k(    2) = (  -0.2500000   0.2500000  -0.0833333), wk =   0.0555556
        k(    3) = (  -0.4166667   0.4166667  -0.2500000), wk =   0.0555556
        k(    4) = (   0.4166667  -0.4166667   0.5833333), wk =   0.0555556
        k(    5) = (   0.2500000  -0.2500000   0.4166667), wk =   0.0555556
        k(    6) = (   0.0833333  -0.0833333   0.2500000), wk =   0.0555556
        k(    7) = (  -0.0833333   0.4166667   0.0833333), wk =   0.0555556
        k(    8) = (  -0.2500000   0.5833333  -0.0833333), wk =   0.1111111
        k(    9) = (   0.5833333  -0.2500000   0.7500000), wk =   0.1111111
        k(   10) = (   0.4166667  -0.0833333   0.5833333), wk =   0.1111111
        k(   11) = (   0.2500000   0.0833333   0.4166667), wk =   0.1111111
        k(   12) = (  -0.0833333   0.7500000   0.0833333), wk =   0.0555556
        k(   13) = (   0.7500000  -0.0833333   0.9166667), wk =   0.1111111
        k(   14) = (   0.5833333   0.0833333   0.7500000), wk =   0.1111111
        k(   15) = (   0.4166667   0.2500000   0.5833333), wk =   0.1111111
        k(   16) = (  -0.0833333  -0.9166667   0.0833333), wk =   0.0555556
        k(   17) = (  -0.2500000  -0.7500000  -0.0833333), wk =   0.1111111
        k(   18) = (  -0.0833333  -0.5833333   0.0833333), wk =   0.0555556
        k(   19) = (  -0.2500000   0.2500000   0.2500000), wk =   0.0185185
        k(   20) = (  -0.4166667   0.4166667   0.0833333), wk =   0.0555556
        k(   21) = (   0.4166667  -0.4166667   0.9166667), wk =   0.0555556
        k(   22) = (   0.2500000  -0.2500000   0.7500000), wk =   0.0555556
        k(   23) = (  -0.2500000   0.5833333   0.2500000), wk =   0.0555556
        k(   24) = (   0.5833333  -0.2500000   1.0833333), wk =   0.1111111
        k(   25) = (   0.4166667  -0.0833333   0.9166667), wk =   0.1111111
        k(   26) = (  -0.2500000  -1.0833333   0.2500000), wk =   0.0555556
        k(   27) = (  -0.4166667   0.4166667   0.4166667), wk =   0.0185185
        k(   28) = (   0.4166667  -0.4166667   1.2500000), wk =   0.0555556

     Dense  grid:    12939 G-vectors     FFT dimensions: (  36,  36,  36)

     Estimated max dynamical RAM per process >      12.27 MB

     Initial potential from superposition of free atoms

     starting charge    7.99889, renormalised to    8.00000
     Starting wfcs are    8 randomized atomic wfcs

     total cpu time spent up to now is        0.5 secs

     Self-consistent Calculation

     iteration #  1     ecut=    50.00 Ry     beta= 0.70
     Davidson diagonalization with overlap
     ethr =  1.00E-02,  avg # of iterations =  2.0

     Threshold (ethr) on eigenvalues was too large:
     Diagonalizing with lowered threshold

     Davidson diagonalization with overlap
     ethr =  5.95E-04,  avg # of iterations =  1.9

     total cpu time spent up to now is        1.5 secs

     total energy              =     -15.73879517 Ry
     estimated scf accuracy    <       0.05544755 Ry

     iteration #  2     ecut=    50.00 Ry     beta= 0.70
     Davidson diagonalization with overlap
     ethr =  6.93E-04,  avg # of iterations =  1.0

     total cpu time spent up to now is        1.9 secs

     total energy              =     -15.74063683 Ry
     estimated scf accuracy    <       0.00315162 Ry

     iteration #  3     ecut=    50.00 Ry     beta= 0.70
     Davidson diagonalization with overlap
     ethr =  3.94E-05,  avg # of iterations =  2.1

     total cpu time spent up to now is        2.5 secs

     total energy              =     -15.74129864 Ry
     estimated scf accuracy    <       0.00010139 Ry

     iteration #  4     ecut=    50.00 Ry     beta= 0.70
     Davidson diagonalization with overlap
     ethr =  1.27E-06,  avg # of iterations =  4.6

     total cpu time spent up to now is        3.3 secs

     total energy              =     -15.74137247 Ry
     estimated scf accuracy    <       0.00000744 Ry

     iteration #  5     ecut=    50.00 Ry     beta= 0.70
     Davidson diagonalization with overlap
     ethr =  9.30E-08,  avg # of iterations =  3.6

     total cpu time spent up to now is        3.9 secs

     End of self-consistent calculation

          k =-0.0833 0.0833 0.0833 (  1606 PWs)   bands (ev):

    -5.5794   5.3907   6.0928   6.0928

          k =-0.2500 0.2500-0.0833 (  1600 PWs)   bands (ev):

    -5.1009   3.3226   4.8576   5.8837

          k =-0.4167 0.4167-0.2500 (  1611 PWs)   bands (ev):

    -4.0027   0.5540   4.3973   5.2457

          k = 0.4167-0.4167 0.5833 (  1613 PWs)   bands (ev):

    -3.2963  -0.5983   4.4666   4.8637

          k = 0.2500-0.2500 0.4167 (  1606 PWs)   bands (ev):

    -4.4172   1.4036   4.9225   4.9671

          k = 0.0833-0.0833 0.2500 (  1599 PWs)   bands (ev):

    -5.3379   4.3334   5.4447   5.6395

          k =-0.0833 0.4167 0.0833 (  1612 PWs)   bands (ev):

    -4.8590   3.1479   4.7051   4.7126

          k =-0.2500 0.5833-0.0833 (  1611 PWs)   bands (ev):

    -3.9447   1.3093   3.3804   4.3267

          k = 0.5833-0.2500 0.7500 (  1607 PWs)   bands (ev):

    -2.8183  -0.4561   2.7831   4.0968

          k = 0.4167-0.0833 0.5833 (  1608 PWs)   bands (ev):

    -3.5473   0.6117   2.7351   4.5869

          k = 0.2500 0.0833 0.4167 (  1607 PWs)   bands (ev):

    -4.6324   2.3036   4.0801   5.2598

          k =-0.0833 0.7500 0.0833 (  1618 PWs)   bands (ev):

    -3.2313   0.4911   3.3393   3.6810

          k = 0.7500-0.0833 0.9167 (  1620 PWs)   bands (ev):

    -2.0289  -0.8511   2.4915   3.2719

          k = 0.5833 0.0833 0.7500 (  1614 PWs)   bands (ev):

    -2.3971  -0.5229   2.0086   3.8201

          k = 0.4167 0.2500 0.5833 (  1612 PWs)   bands (ev):

    -3.4327  -0.0885   3.6890   4.6850

          k =-0.0833-0.9167 0.0833 (  1620 PWs)   bands (ev):

    -2.1231  -0.8601   3.0682   3.4651

          k =-0.2500-0.7500-0.0833 (  1621 PWs)   bands (ev):

    -3.0608   0.2653   2.8182   3.6131

          k =-0.0833-0.5833 0.0833 (  1617 PWs)   bands (ev):

    -4.1517   1.8557   3.8884   4.1045

          k =-0.2500 0.2500 0.2500 (  1618 PWs)   bands (ev):

    -4.8703   2.3392   5.4787   5.4787

          k =-0.4167 0.4167 0.0833 (  1613 PWs)   bands (ev):

    -4.1881   1.4155   3.3455   5.3097

          k = 0.4167-0.4167 0.9167 (  1607 PWs)   bands (ev):

    -3.0015  -0.0223   2.2315   4.5201

          k = 0.2500-0.2500 0.7500 (  1617 PWs)   bands (ev):

    -2.9500  -0.1014   2.7152   4.0360

          k =-0.2500 0.5833 0.2500 (  1610 PWs)   bands (ev):

    -3.7617   0.6033   3.8200   4.4104

          k = 0.5833-0.2500 1.0833 (  1611 PWs)   bands (ev):

    -2.7542  -0.1286   2.3306   3.6106

          k = 0.4167-0.0833 0.9167 (  1613 PWs)   bands (ev):

    -1.9189  -0.8590   2.1600   2.9391

          k =-0.2500-1.0833 0.2500 (  1620 PWs)   bands (ev):

    -2.1297  -0.7693   2.0334   3.8408

          k =-0.4167 0.4167 0.4167 (  1610 PWs)   bands (ev):

    -3.6698  -0.1956   5.0903   5.0903

          k = 0.4167-0.4167 1.2500 (  1602 PWs)   bands (ev):

    -3.0603  -0.4937   3.2617   4.6477

     highest occupied level (ev):     6.0928

!    total energy              =     -15.74137611 Ry
     estimated scf accuracy    <       0.00000019 Ry

     The total energy is the sum of the following terms:
     one-electron contribution =       4.77886848 Ry
     hartree contribution      =       1.09382939 Ry
     xc contribution           =      -4.81314436 Ry
     ewald contribution        =     -16.80092961 Ry

     convergence has been achieved in   5 iterations

     Writing output data file ./Si_exc1.save/

     init_run     :      0.45s CPU      0.45s WALL (       1 calls)
     electrons    :      3.46s CPU      5.84s WALL (       1 calls)

     Called by init_run:
     wfcinit      :      0.34s CPU      0.34s WALL (       1 calls)
     potinit      :      0.03s CPU      0.03s WALL (       1 calls)
     hinit0       :      0.06s CPU      0.06s WALL (       1 calls)

     Called by electrons:
     c_bands      :      2.81s CPU      2.82s WALL (       6 calls)
     sum_band     :      0.51s CPU      0.51s WALL (       6 calls)
     v_of_rho     :      0.16s CPU      0.16s WALL (       6 calls)
     mix_rho      :      0.01s CPU      0.01s WALL (       6 calls)

     Called by c_bands:
     init_us_2    :      0.10s CPU      0.10s WALL (     364 calls)
     cegterg      :      2.74s CPU      2.75s WALL (     168 calls)

     Called by *egterg:
     cdiaghg      :      0.02s CPU      0.02s WALL (     569 calls)
     h_psi        :      2.92s CPU      2.93s WALL (     625 calls)
     g_psi        :      0.02s CPU      0.02s WALL (     429 calls)

     Called by h_psi:
     h_psi:calbec :      0.03s CPU      0.03s WALL (     625 calls)
     vloc_psi     :      2.86s CPU      2.87s WALL (     625 calls)
     add_vuspsi   :      0.03s CPU      0.03s WALL (     625 calls)

     General routines
     calbec       :      0.03s CPU      0.03s WALL (     625 calls)
     fft          :      0.06s CPU      0.06s WALL (      60 calls)
     ffts         :      0.01s CPU      0.01s WALL (       6 calls)
     fftw         :      3.00s CPU      3.01s WALL (    5080 calls)

     Parallel routines

     PWSCF        :      3.94s CPU      6.39s WALL


   This run was terminated on:  16:14: 0  18Sep2022            

=------------------------------------------------------------------------------=
   JOB DONE.
=------------------------------------------------------------------------------=
