
     Program PWSCF v.6.7MaX starts on 19Sep2022 at 18:31:12 

     This program is part of the open-source Quantum ESPRESSO suite
     for quantum simulation of materials; please cite
         "P. Giannozzi et al., J. Phys.:Condens. Matter 21 395502 (2009);
         "P. Giannozzi et al., J. Phys.:Condens. Matter 29 465901 (2017);
          URL http://www.quantum-espresso.org", 
     in publications or presentations arising from this work. More details at
     http://www.quantum-espresso.org/quote

     Parallel version (MPI), running on     1 processors

     MPI processes distributed on     1 nodes
     Waiting for input...
     Reading input from standard input

     Current dimensions of program PWSCF are:
     Max number of different atomic species (ntypx) = 10
     Max number of k-points (npk) =  40000
     Max angular momentum in pseudopotentials (lmaxx) =  3

     Subspace diagonalization in iterative solution of the eigenvalue problem:
     a serial algorithm will be used


     G-vector sticks info
     --------------------
     sticks:   dense  smooth     PW     G-vecs:    dense   smooth      PW
     Sum         367     367    121                 4693     4693     941



     bravais-lattice index     =            2
     lattice parameter (alat)  =      10.4000  a.u.
     unit-cell volume          =     281.2160 (a.u.)^3
     number of atoms/cell      =            2
     number of atomic types    =            1
     number of electrons       =         8.00
     number of Kohn-Sham states=            4
     kinetic-energy cutoff     =      25.0000  Ry
     charge density cutoff     =     100.0000  Ry
     scf convergence threshold =      1.0E-06
     mixing beta               =       0.7000
     number of iterations used =            8  plain     mixing
     Exchange-correlation=  SLA  PW   PBE  PBE
                           (   1   4   3   4   0   0   0)

     celldm(1)=  10.400000  celldm(2)=   0.000000  celldm(3)=   0.000000
     celldm(4)=   0.000000  celldm(5)=   0.000000  celldm(6)=   0.000000

     crystal axes: (cart. coord. in units of alat)
               a(1) = (  -0.500000   0.000000   0.500000 )  
               a(2) = (   0.000000   0.500000   0.500000 )  
               a(3) = (  -0.500000   0.500000   0.000000 )  

     reciprocal axes: (cart. coord. in units 2 pi/alat)
               b(1) = ( -1.000000 -1.000000  1.000000 )  
               b(2) = (  1.000000  1.000000  1.000000 )  
               b(3) = ( -1.000000  1.000000 -1.000000 )  


     PseudoPot. # 1 for Si read from file:
     ./Si.pbe-rrkj.UPF
     MD5 check sum: cf7ab5690cd9a85b22c4813f7e365554
     Pseudo is Norm-conserving, Zval =  4.0
     Generated by new atomic code, or converted to UPF format
     Using radial grid of  883 points,  3 beta functions with: 
                l(1) =   0
                l(2) =   0
                l(3) =   1

     atomic species   valence    mass     pseudopotential
        Si             4.00    28.08600     Si( 1.00)

     48 Sym. Ops., with inversion, found (24 have fractional translation)



   Cartesian axes

     site n.     atom                  positions (alat units)
         1           Si  tau(   1) = (   0.0000000   0.0000000   0.0000000  )
         2           Si  tau(   2) = (   0.2500000   0.2500000   0.2500000  )

     number of k points=    28
                       cart. coord. in units 2pi/alat
        k(    1) = (  -0.0833333   0.0833333   0.0833333), wk =   0.0185185
        k(    2) = (  -0.2500000   0.2500000  -0.0833333), wk =   0.0555556
        k(    3) = (  -0.4166667   0.4166667  -0.2500000), wk =   0.0555556
        k(    4) = (   0.4166667  -0.4166667   0.5833333), wk =   0.0555556
        k(    5) = (   0.2500000  -0.2500000   0.4166667), wk =   0.0555556
        k(    6) = (   0.0833333  -0.0833333   0.2500000), wk =   0.0555556
        k(    7) = (  -0.0833333   0.4166667   0.0833333), wk =   0.0555556
        k(    8) = (  -0.2500000   0.5833333  -0.0833333), wk =   0.1111111
        k(    9) = (   0.5833333  -0.2500000   0.7500000), wk =   0.1111111
        k(   10) = (   0.4166667  -0.0833333   0.5833333), wk =   0.1111111
        k(   11) = (   0.2500000   0.0833333   0.4166667), wk =   0.1111111
        k(   12) = (  -0.0833333   0.7500000   0.0833333), wk =   0.0555556
        k(   13) = (   0.7500000  -0.0833333   0.9166667), wk =   0.1111111
        k(   14) = (   0.5833333   0.0833333   0.7500000), wk =   0.1111111
        k(   15) = (   0.4166667   0.2500000   0.5833333), wk =   0.1111111
        k(   16) = (  -0.0833333  -0.9166667   0.0833333), wk =   0.0555556
        k(   17) = (  -0.2500000  -0.7500000  -0.0833333), wk =   0.1111111
        k(   18) = (  -0.0833333  -0.5833333   0.0833333), wk =   0.0555556
        k(   19) = (  -0.2500000   0.2500000   0.2500000), wk =   0.0185185
        k(   20) = (  -0.4166667   0.4166667   0.0833333), wk =   0.0555556
        k(   21) = (   0.4166667  -0.4166667   0.9166667), wk =   0.0555556
        k(   22) = (   0.2500000  -0.2500000   0.7500000), wk =   0.0555556
        k(   23) = (  -0.2500000   0.5833333   0.2500000), wk =   0.0555556
        k(   24) = (   0.5833333  -0.2500000   1.0833333), wk =   0.1111111
        k(   25) = (   0.4166667  -0.0833333   0.9166667), wk =   0.1111111
        k(   26) = (  -0.2500000  -1.0833333   0.2500000), wk =   0.0555556
        k(   27) = (  -0.4166667   0.4166667   0.4166667), wk =   0.0185185
        k(   28) = (   0.4166667  -0.4166667   1.2500000), wk =   0.0555556

     Dense  grid:     4693 G-vectors     FFT dimensions: (  24,  24,  24)

     Estimated max dynamical RAM per process >       4.33 MB

     Initial potential from superposition of free atoms

     starting charge    7.99889, renormalised to    8.00000
     Starting wfcs are    8 randomized atomic wfcs

     total cpu time spent up to now is        0.2 secs

     Self-consistent Calculation

     iteration #  1     ecut=    25.00 Ry     beta= 0.70
     Davidson diagonalization with overlap
     ethr =  1.00E-02,  avg # of iterations =  2.0

     Threshold (ethr) on eigenvalues was too large:
     Diagonalizing with lowered threshold

     Davidson diagonalization with overlap
     ethr =  5.50E-04,  avg # of iterations =  2.0

     total cpu time spent up to now is        0.4 secs

     total energy              =     -15.73931074 Ry
     estimated scf accuracy    <       0.05210105 Ry

     iteration #  2     ecut=    25.00 Ry     beta= 0.70
     Davidson diagonalization with overlap
     ethr =  6.51E-04,  avg # of iterations =  1.0

     total cpu time spent up to now is        0.5 secs

     total energy              =     -15.74092969 Ry
     estimated scf accuracy    <       0.00302046 Ry

     iteration #  3     ecut=    25.00 Ry     beta= 0.70
     Davidson diagonalization with overlap
     ethr =  3.78E-05,  avg # of iterations =  2.0

     total cpu time spent up to now is        0.6 secs

     total energy              =     -15.74147342 Ry
     estimated scf accuracy    <       0.00008079 Ry

     iteration #  4     ecut=    25.00 Ry     beta= 0.70
     Davidson diagonalization with overlap
     ethr =  1.01E-06,  avg # of iterations =  5.0

     total cpu time spent up to now is        0.7 secs

     total energy              =     -15.74155016 Ry
     estimated scf accuracy    <       0.00000207 Ry

     iteration #  5     ecut=    25.00 Ry     beta= 0.70
     Davidson diagonalization with overlap
     ethr =  2.58E-08,  avg # of iterations =  4.4

     total cpu time spent up to now is        0.9 secs

     End of self-consistent calculation

          k =-0.0833 0.0833 0.0833 (   585 PWs)   bands (ev):

    -5.7267   4.9734   5.6826   5.6826

          k =-0.2500 0.2500-0.0833 (   586 PWs)   bands (ev):

    -5.2651   2.9382   4.4937   5.4749

          k =-0.4167 0.4167-0.2500 (   597 PWs)   bands (ev):

    -4.2101   0.2628   4.0356   4.8582

          k = 0.4167-0.4167 0.5833 (   592 PWs)   bands (ev):

    -3.5412  -0.8389   4.0950   4.4920

          k = 0.2500-0.2500 0.4167 (   598 PWs)   bands (ev):

    -4.6072   1.0818   4.5545   4.5781

          k = 0.0833-0.0833 0.2500 (   586 PWs)   bands (ev):

    -5.4936   3.9209   5.0628   5.2339

          k =-0.0833 0.4167 0.0833 (   584 PWs)   bands (ev):

    -5.0314   2.7370   4.3377   4.3576

          k =-0.2500 0.5833-0.0833 (   597 PWs)   bands (ev):

    -4.1508   0.9477   3.0708   3.9823

          k = 0.5833-0.2500 0.7500 (   592 PWs)   bands (ev):

    -3.0783  -0.7342   2.4820   3.7650

          k = 0.4167-0.0833 0.5833 (   592 PWs)   bands (ev):

    -3.7709   0.2807   2.4509   4.2315

          k = 0.2500 0.0833 0.4167 (   592 PWs)   bands (ev):

    -4.8135   1.9342   3.7433   4.8714

          k =-0.0833 0.7500 0.0833 (   597 PWs)   bands (ev):

    -3.4612   0.1319   3.0377   3.3599

          k = 0.7500-0.0833 0.9167 (   595 PWs)   bands (ev):

    -2.3069  -1.1679   2.2332   2.9736

          k = 0.5833 0.0833 0.7500 (   593 PWs)   bands (ev):

    -2.6715  -0.8316   1.7658   3.4993

          k = 0.4167 0.2500 0.5833 (   595 PWs)   bands (ev):

    -3.6653  -0.3632   3.3462   4.3236

          k =-0.0833-0.9167 0.0833 (   604 PWs)   bands (ev):

    -2.3928  -1.1743   2.7774   3.1508

          k =-0.2500-0.7500-0.0833 (   594 PWs)   bands (ev):

    -3.2997  -0.0824   2.5389   3.3027

          k =-0.0833-0.5833 0.0833 (   595 PWs)   bands (ev):

    -4.3489   1.4608   3.5620   3.7698

          k =-0.2500 0.2500 0.2500 (   589 PWs)   bands (ev):

    -5.0431   1.9941   5.0879   5.0879

          k =-0.4167 0.4167 0.0833 (   595 PWs)   bands (ev):

    -4.3864   1.0713   3.0361   4.9213

          k = 0.4167-0.4167 0.9167 (   593 PWs)   bands (ev):

    -3.2497  -0.3351   1.9713   4.1647

          k = 0.2500-0.2500 0.7500 (   598 PWs)   bands (ev):

    -3.1979  -0.4125   2.4289   3.7007

          k =-0.2500 0.5833 0.2500 (   595 PWs)   bands (ev):

    -3.9770   0.2924   3.4723   4.0616

          k = 0.5833-0.2500 1.0833 (   589 PWs)   bands (ev):

    -3.0098  -0.4543   2.0693   3.3045

          k = 0.4167-0.0833 0.9167 (   596 PWs)   bands (ev):

    -2.2078  -1.1756   1.9179   2.6641

          k =-0.2500-1.0833 0.2500 (   600 PWs)   bands (ev):

    -2.4122  -1.0777   1.7959   3.5123

          k =-0.4167 0.4167 0.4167 (   595 PWs)   bands (ev):

    -3.8947  -0.4522   4.7082   4.7082

          k = 0.4167-0.4167 1.2500 (   592 PWs)   bands (ev):

    -3.3126  -0.7526   2.9369   4.2863

     highest occupied level (ev):     5.6826

!    total energy              =     -15.74155245 Ry
     estimated scf accuracy    <       0.00000016 Ry

     The total energy is the sum of the following terms:
     one-electron contribution =       4.47487856 Ry
     hartree contribution      =       1.12888825 Ry
     xc contribution           =      -4.77055602 Ry
     ewald contribution        =     -16.57476324 Ry

     convergence has been achieved in   5 iterations

     Writing output data file ./Si_exc1.save/

     init_run     :      0.12s CPU      0.13s WALL (       1 calls)
     electrons    :      0.70s CPU      0.76s WALL (       1 calls)

     Called by init_run:
     wfcinit      :      0.07s CPU      0.07s WALL (       1 calls)
     potinit      :      0.00s CPU      0.01s WALL (       1 calls)
     hinit0       :      0.05s CPU      0.05s WALL (       1 calls)

     Called by electrons:
     c_bands      :      0.56s CPU      0.58s WALL (       6 calls)
     sum_band     :      0.10s CPU      0.10s WALL (       6 calls)
     v_of_rho     :      0.04s CPU      0.04s WALL (       6 calls)
     mix_rho      :      0.00s CPU      0.00s WALL (       6 calls)

     Called by c_bands:
     init_us_2    :      0.04s CPU      0.04s WALL (     364 calls)
     cegterg      :      0.54s CPU      0.55s WALL (     168 calls)

     Called by *egterg:
     cdiaghg      :      0.01s CPU      0.02s WALL (     598 calls)
     h_psi        :      0.53s CPU      0.54s WALL (     654 calls)
     g_psi        :      0.01s CPU      0.01s WALL (     458 calls)

     Called by h_psi:
     h_psi:calbec :      0.01s CPU      0.01s WALL (     654 calls)
     vloc_psi     :      0.50s CPU      0.52s WALL (     654 calls)
     add_vuspsi   :      0.01s CPU      0.01s WALL (     654 calls)

     General routines
     calbec       :      0.01s CPU      0.01s WALL (     654 calls)
     fft          :      0.02s CPU      0.02s WALL (      60 calls)
     ffts         :      0.00s CPU      0.00s WALL (       6 calls)
     fftw         :      0.50s CPU      0.51s WALL (    5250 calls)

     Parallel routines

     PWSCF        :      0.86s CPU      0.94s WALL


   This run was terminated on:  18:31:13  19Sep2022            

=------------------------------------------------------------------------------=
   JOB DONE.
=------------------------------------------------------------------------------=
