
     Program PWSCF v.6.7MaX starts on 19Sep2022 at 18:31:14 

     This program is part of the open-source Quantum ESPRESSO suite
     for quantum simulation of materials; please cite
         "P. Giannozzi et al., J. Phys.:Condens. Matter 21 395502 (2009);
         "P. Giannozzi et al., J. Phys.:Condens. Matter 29 465901 (2017);
          URL http://www.quantum-espresso.org", 
     in publications or presentations arising from this work. More details at
     http://www.quantum-espresso.org/quote

     Parallel version (MPI), running on     1 processors

     MPI processes distributed on     1 nodes
     Waiting for input...
     Reading input from standard input

     Current dimensions of program PWSCF are:
     Max number of different atomic species (ntypx) = 10
     Max number of k-points (npk) =  40000
     Max angular momentum in pseudopotentials (lmaxx) =  3

     Subspace diagonalization in iterative solution of the eigenvalue problem:
     a serial algorithm will be used


     G-vector sticks info
     --------------------
     sticks:   dense  smooth     PW     G-vecs:    dense   smooth      PW
     Sum         379     379    127                 5029     5029     965



     bravais-lattice index     =            2
     lattice parameter (alat)  =      10.6000  a.u.
     unit-cell volume          =     297.7540 (a.u.)^3
     number of atoms/cell      =            2
     number of atomic types    =            1
     number of electrons       =         8.00
     number of Kohn-Sham states=            4
     kinetic-energy cutoff     =      25.0000  Ry
     charge density cutoff     =     100.0000  Ry
     scf convergence threshold =      1.0E-06
     mixing beta               =       0.7000
     number of iterations used =            8  plain     mixing
     Exchange-correlation=  SLA  PW   PBE  PBE
                           (   1   4   3   4   0   0   0)

     celldm(1)=  10.600000  celldm(2)=   0.000000  celldm(3)=   0.000000
     celldm(4)=   0.000000  celldm(5)=   0.000000  celldm(6)=   0.000000

     crystal axes: (cart. coord. in units of alat)
               a(1) = (  -0.500000   0.000000   0.500000 )  
               a(2) = (   0.000000   0.500000   0.500000 )  
               a(3) = (  -0.500000   0.500000   0.000000 )  

     reciprocal axes: (cart. coord. in units 2 pi/alat)
               b(1) = ( -1.000000 -1.000000  1.000000 )  
               b(2) = (  1.000000  1.000000  1.000000 )  
               b(3) = ( -1.000000  1.000000 -1.000000 )  


     PseudoPot. # 1 for Si read from file:
     ./Si.pbe-rrkj.UPF
     MD5 check sum: cf7ab5690cd9a85b22c4813f7e365554
     Pseudo is Norm-conserving, Zval =  4.0
     Generated by new atomic code, or converted to UPF format
     Using radial grid of  883 points,  3 beta functions with: 
                l(1) =   0
                l(2) =   0
                l(3) =   1

     atomic species   valence    mass     pseudopotential
        Si             4.00    28.08600     Si( 1.00)

     48 Sym. Ops., with inversion, found (24 have fractional translation)



   Cartesian axes

     site n.     atom                  positions (alat units)
         1           Si  tau(   1) = (   0.0000000   0.0000000   0.0000000  )
         2           Si  tau(   2) = (   0.2500000   0.2500000   0.2500000  )

     number of k points=    28
                       cart. coord. in units 2pi/alat
        k(    1) = (  -0.0833333   0.0833333   0.0833333), wk =   0.0185185
        k(    2) = (  -0.2500000   0.2500000  -0.0833333), wk =   0.0555556
        k(    3) = (  -0.4166667   0.4166667  -0.2500000), wk =   0.0555556
        k(    4) = (   0.4166667  -0.4166667   0.5833333), wk =   0.0555556
        k(    5) = (   0.2500000  -0.2500000   0.4166667), wk =   0.0555556
        k(    6) = (   0.0833333  -0.0833333   0.2500000), wk =   0.0555556
        k(    7) = (  -0.0833333   0.4166667   0.0833333), wk =   0.0555556
        k(    8) = (  -0.2500000   0.5833333  -0.0833333), wk =   0.1111111
        k(    9) = (   0.5833333  -0.2500000   0.7500000), wk =   0.1111111
        k(   10) = (   0.4166667  -0.0833333   0.5833333), wk =   0.1111111
        k(   11) = (   0.2500000   0.0833333   0.4166667), wk =   0.1111111
        k(   12) = (  -0.0833333   0.7500000   0.0833333), wk =   0.0555556
        k(   13) = (   0.7500000  -0.0833333   0.9166667), wk =   0.1111111
        k(   14) = (   0.5833333   0.0833333   0.7500000), wk =   0.1111111
        k(   15) = (   0.4166667   0.2500000   0.5833333), wk =   0.1111111
        k(   16) = (  -0.0833333  -0.9166667   0.0833333), wk =   0.0555556
        k(   17) = (  -0.2500000  -0.7500000  -0.0833333), wk =   0.1111111
        k(   18) = (  -0.0833333  -0.5833333   0.0833333), wk =   0.0555556
        k(   19) = (  -0.2500000   0.2500000   0.2500000), wk =   0.0185185
        k(   20) = (  -0.4166667   0.4166667   0.0833333), wk =   0.0555556
        k(   21) = (   0.4166667  -0.4166667   0.9166667), wk =   0.0555556
        k(   22) = (   0.2500000  -0.2500000   0.7500000), wk =   0.0555556
        k(   23) = (  -0.2500000   0.5833333   0.2500000), wk =   0.0555556
        k(   24) = (   0.5833333  -0.2500000   1.0833333), wk =   0.1111111
        k(   25) = (   0.4166667  -0.0833333   0.9166667), wk =   0.1111111
        k(   26) = (  -0.2500000  -1.0833333   0.2500000), wk =   0.0555556
        k(   27) = (  -0.4166667   0.4166667   0.4166667), wk =   0.0185185
        k(   28) = (   0.4166667  -0.4166667   1.2500000), wk =   0.0555556

     Dense  grid:     5029 G-vectors     FFT dimensions: (  24,  24,  24)

     Estimated max dynamical RAM per process >       4.54 MB

     Initial potential from superposition of free atoms

     starting charge    7.99889, renormalised to    8.00000
     Starting wfcs are    8 randomized atomic wfcs

     total cpu time spent up to now is        0.2 secs

     Self-consistent Calculation

     iteration #  1     ecut=    25.00 Ry     beta= 0.70
     Davidson diagonalization with overlap
     ethr =  1.00E-02,  avg # of iterations =  2.0

     Threshold (ethr) on eigenvalues was too large:
     Diagonalizing with lowered threshold

     Davidson diagonalization with overlap
     ethr =  4.91E-04,  avg # of iterations =  2.0

     total cpu time spent up to now is        0.4 secs

     total energy              =     -15.73585289 Ry
     estimated scf accuracy    <       0.04743992 Ry

     iteration #  2     ecut=    25.00 Ry     beta= 0.70
     Davidson diagonalization with overlap
     ethr =  5.93E-04,  avg # of iterations =  1.0

     total cpu time spent up to now is        0.5 secs

     total energy              =     -15.73718259 Ry
     estimated scf accuracy    <       0.00288643 Ry

     iteration #  3     ecut=    25.00 Ry     beta= 0.70
     Davidson diagonalization with overlap
     ethr =  3.61E-05,  avg # of iterations =  2.1

     total cpu time spent up to now is        0.6 secs

     total energy              =     -15.73761188 Ry
     estimated scf accuracy    <       0.00006300 Ry

     iteration #  4     ecut=    25.00 Ry     beta= 0.70
     Davidson diagonalization with overlap
     ethr =  7.88E-07,  avg # of iterations =  5.0

     total cpu time spent up to now is        0.7 secs

     End of self-consistent calculation

          k =-0.0833 0.0833 0.0833 (   621 PWs)   bands (ev):

    -5.9269   4.3993   5.1284   5.1284

          k =-0.2500 0.2500-0.0833 (   623 PWs)   bands (ev):

    -5.4882   2.4080   4.0031   4.9236

          k =-0.4167 0.4167-0.2500 (   620 PWs)   bands (ev):

    -4.4920  -0.1381   3.5485   4.3363

          k = 0.4167-0.4167 0.5833 (   623 PWs)   bands (ev):

    -3.8726  -1.1713   3.5947   3.9914

          k = 0.2500-0.2500 0.4167 (   622 PWs)   bands (ev):

    -4.8653   0.6389   4.0544   4.0581

          k = 0.0833-0.0833 0.2500 (   619 PWs)   bands (ev):

    -5.7052   3.3501   4.5470   4.6877

          k =-0.0833 0.4167 0.0833 (   619 PWs)   bands (ev):

    -5.2657   2.1708   3.8449   3.8785

          k =-0.2500 0.5833-0.0833 (   625 PWs)   bands (ev):

    -4.4312   0.4516   2.6553   3.5180

          k = 0.5833-0.2500 0.7500 (   635 PWs)   bands (ev):

    -3.4304  -1.1188   2.0800   3.3171

          k = 0.4167-0.0833 0.5833 (   626 PWs)   bands (ev):

    -4.0748  -0.1740   2.0701   3.7523

          k = 0.2500 0.0833 0.4167 (   623 PWs)   bands (ev):

    -5.0596   1.4250   3.2903   4.3484

          k =-0.0833 0.7500 0.0833 (   631 PWs)   bands (ev):

    -3.7742  -0.3575   2.6311   2.9275

          k = 0.7500-0.0833 0.9167 (   633 PWs)   bands (ev):

    -2.6850  -1.5987   1.8844   2.5714

          k = 0.5833 0.0833 0.7500 (   636 PWs)   bands (ev):

    -3.0433  -1.2544   1.4397   3.0666

          k = 0.4167 0.2500 0.5833 (   629 PWs)   bands (ev):

    -3.9810  -0.7421   2.8861   3.8364

          k =-0.0833-0.9167 0.0833 (   631 PWs)   bands (ev):

    -2.7600  -1.6021   2.3855   2.7278

          k =-0.2500-0.7500-0.0833 (   636 PWs)   bands (ev):

    -3.6248  -0.5564   2.1630   2.8835

          k =-0.0833-0.5833 0.0833 (   626 PWs)   bands (ev):

    -4.6172   0.9209   3.1226   3.3187

          k =-0.2500 0.2500 0.2500 (   616 PWs)   bands (ev):

    -5.2779   1.5190   4.5609   4.5609

          k =-0.4167 0.4167 0.0833 (   626 PWs)   bands (ev):

    -4.6559   0.5976   2.6209   4.3981

          k = 0.4167-0.4167 0.9167 (   629 PWs)   bands (ev):

    -3.5865  -0.7647   1.6230   3.6859

          k = 0.2500-0.2500 0.7500 (   626 PWs)   bands (ev):

    -3.5346  -0.8399   2.0456   3.2491

          k =-0.2500 0.5833 0.2500 (   621 PWs)   bands (ev):

    -4.2697  -0.1358   3.0064   3.5917

          k = 0.5833-0.2500 1.0833 (   636 PWs)   bands (ev):

    -3.3570  -0.8998   1.7189   2.8909

          k = 0.4167-0.0833 0.9167 (   630 PWs)   bands (ev):

    -2.5996  -1.6062   1.5910   2.2924

          k =-0.2500-1.0833 0.2500 (   631 PWs)   bands (ev):

    -2.7952  -1.4984   1.4754   3.0701

          k =-0.4167 0.4167 0.4167 (   622 PWs)   bands (ev):

    -4.1999  -0.8053   4.1938   4.1938

          k = 0.4167-0.4167 1.2500 (   626 PWs)   bands (ev):

    -3.6544  -1.1110   2.5015   3.7994

     highest occupied level (ev):     5.1284

!    total energy              =     -15.73768174 Ry
     estimated scf accuracy    <       0.00000048 Ry

     The total energy is the sum of the following terms:
     one-electron contribution =       4.05669723 Ry
     hartree contribution      =       1.18024522 Ry
     xc contribution           =      -4.71259233 Ry
     ewald contribution        =     -16.26203185 Ry

     convergence has been achieved in   4 iterations

     Writing output data file ./Si_exc1.save/

     init_run     :      0.13s CPU      0.13s WALL (       1 calls)
     electrons    :      0.56s CPU      0.61s WALL (       1 calls)

     Called by init_run:
     wfcinit      :      0.07s CPU      0.07s WALL (       1 calls)
     potinit      :      0.01s CPU      0.01s WALL (       1 calls)
     hinit0       :      0.05s CPU      0.05s WALL (       1 calls)

     Called by electrons:
     c_bands      :      0.45s CPU      0.45s WALL (       5 calls)
     sum_band     :      0.08s CPU      0.09s WALL (       5 calls)
     v_of_rho     :      0.04s CPU      0.04s WALL (       5 calls)
     mix_rho      :      0.00s CPU      0.00s WALL (       5 calls)

     Called by c_bands:
     init_us_2    :      0.03s CPU      0.03s WALL (     308 calls)
     cegterg      :      0.42s CPU      0.43s WALL (     140 calls)

     Called by *egterg:
     cdiaghg      :      0.01s CPU      0.01s WALL (     451 calls)
     h_psi        :      0.43s CPU      0.44s WALL (     507 calls)
     g_psi        :      0.00s CPU      0.00s WALL (     339 calls)

     Called by h_psi:
     h_psi:calbec :      0.01s CPU      0.01s WALL (     507 calls)
     vloc_psi     :      0.41s CPU      0.41s WALL (     507 calls)
     add_vuspsi   :      0.01s CPU      0.01s WALL (     507 calls)

     General routines
     calbec       :      0.01s CPU      0.01s WALL (     507 calls)
     fft          :      0.02s CPU      0.02s WALL (      50 calls)
     ffts         :      0.00s CPU      0.00s WALL (       5 calls)
     fftw         :      0.40s CPU      0.41s WALL (    4188 calls)

     Parallel routines

     PWSCF        :      0.74s CPU      0.80s WALL


   This run was terminated on:  18:31:14  19Sep2022            

=------------------------------------------------------------------------------=
   JOB DONE.
=------------------------------------------------------------------------------=
