
     Program PWSCF v.6.7MaX starts on 19Sep2022 at 18:31: 5 

     This program is part of the open-source Quantum ESPRESSO suite
     for quantum simulation of materials; please cite
         "P. Giannozzi et al., J. Phys.:Condens. Matter 21 395502 (2009);
         "P. Giannozzi et al., J. Phys.:Condens. Matter 29 465901 (2017);
          URL http://www.quantum-espresso.org", 
     in publications or presentations arising from this work. More details at
     http://www.quantum-espresso.org/quote

     Parallel version (MPI), running on     1 processors

     MPI processes distributed on     1 nodes
     Waiting for input...
     Reading input from standard input

     Current dimensions of program PWSCF are:
     Max number of different atomic species (ntypx) = 10
     Max number of k-points (npk) =  40000
     Max angular momentum in pseudopotentials (lmaxx) =  3

     Subspace diagonalization in iterative solution of the eigenvalue problem:
     a serial algorithm will be used


     G-vector sticks info
     --------------------
     sticks:   dense  smooth     PW     G-vecs:    dense   smooth      PW
     Sum         283     283     97                 3119     3119     645



     bravais-lattice index     =            2
     lattice parameter (alat)  =       9.0000  a.u.
     unit-cell volume          =     182.2500 (a.u.)^3
     number of atoms/cell      =            2
     number of atomic types    =            1
     number of electrons       =         8.00
     number of Kohn-Sham states=            4
     kinetic-energy cutoff     =      25.0000  Ry
     charge density cutoff     =     100.0000  Ry
     scf convergence threshold =      1.0E-06
     mixing beta               =       0.7000
     number of iterations used =            8  plain     mixing
     Exchange-correlation=  SLA  PW   PBE  PBE
                           (   1   4   3   4   0   0   0)

     celldm(1)=   9.000000  celldm(2)=   0.000000  celldm(3)=   0.000000
     celldm(4)=   0.000000  celldm(5)=   0.000000  celldm(6)=   0.000000

     crystal axes: (cart. coord. in units of alat)
               a(1) = (  -0.500000   0.000000   0.500000 )  
               a(2) = (   0.000000   0.500000   0.500000 )  
               a(3) = (  -0.500000   0.500000   0.000000 )  

     reciprocal axes: (cart. coord. in units 2 pi/alat)
               b(1) = ( -1.000000 -1.000000  1.000000 )  
               b(2) = (  1.000000  1.000000  1.000000 )  
               b(3) = ( -1.000000  1.000000 -1.000000 )  


     PseudoPot. # 1 for Si read from file:
     ./Si.pbe-rrkj.UPF
     MD5 check sum: cf7ab5690cd9a85b22c4813f7e365554
     Pseudo is Norm-conserving, Zval =  4.0
     Generated by new atomic code, or converted to UPF format
     Using radial grid of  883 points,  3 beta functions with: 
                l(1) =   0
                l(2) =   0
                l(3) =   1

     atomic species   valence    mass     pseudopotential
        Si             4.00    28.08600     Si( 1.00)

     48 Sym. Ops., with inversion, found (24 have fractional translation)



   Cartesian axes

     site n.     atom                  positions (alat units)
         1           Si  tau(   1) = (   0.0000000   0.0000000   0.0000000  )
         2           Si  tau(   2) = (   0.2500000   0.2500000   0.2500000  )

     number of k points=    28
                       cart. coord. in units 2pi/alat
        k(    1) = (  -0.0833333   0.0833333   0.0833333), wk =   0.0185185
        k(    2) = (  -0.2500000   0.2500000  -0.0833333), wk =   0.0555556
        k(    3) = (  -0.4166667   0.4166667  -0.2500000), wk =   0.0555556
        k(    4) = (   0.4166667  -0.4166667   0.5833333), wk =   0.0555556
        k(    5) = (   0.2500000  -0.2500000   0.4166667), wk =   0.0555556
        k(    6) = (   0.0833333  -0.0833333   0.2500000), wk =   0.0555556
        k(    7) = (  -0.0833333   0.4166667   0.0833333), wk =   0.0555556
        k(    8) = (  -0.2500000   0.5833333  -0.0833333), wk =   0.1111111
        k(    9) = (   0.5833333  -0.2500000   0.7500000), wk =   0.1111111
        k(   10) = (   0.4166667  -0.0833333   0.5833333), wk =   0.1111111
        k(   11) = (   0.2500000   0.0833333   0.4166667), wk =   0.1111111
        k(   12) = (  -0.0833333   0.7500000   0.0833333), wk =   0.0555556
        k(   13) = (   0.7500000  -0.0833333   0.9166667), wk =   0.1111111
        k(   14) = (   0.5833333   0.0833333   0.7500000), wk =   0.1111111
        k(   15) = (   0.4166667   0.2500000   0.5833333), wk =   0.1111111
        k(   16) = (  -0.0833333  -0.9166667   0.0833333), wk =   0.0555556
        k(   17) = (  -0.2500000  -0.7500000  -0.0833333), wk =   0.1111111
        k(   18) = (  -0.0833333  -0.5833333   0.0833333), wk =   0.0555556
        k(   19) = (  -0.2500000   0.2500000   0.2500000), wk =   0.0185185
        k(   20) = (  -0.4166667   0.4166667   0.0833333), wk =   0.0555556
        k(   21) = (   0.4166667  -0.4166667   0.9166667), wk =   0.0555556
        k(   22) = (   0.2500000  -0.2500000   0.7500000), wk =   0.0555556
        k(   23) = (  -0.2500000   0.5833333   0.2500000), wk =   0.0555556
        k(   24) = (   0.5833333  -0.2500000   1.0833333), wk =   0.1111111
        k(   25) = (   0.4166667  -0.0833333   0.9166667), wk =   0.1111111
        k(   26) = (  -0.2500000  -1.0833333   0.2500000), wk =   0.0555556
        k(   27) = (  -0.4166667   0.4166667   0.4166667), wk =   0.0185185
        k(   28) = (   0.4166667  -0.4166667   1.2500000), wk =   0.0555556

     Dense  grid:     3119 G-vectors     FFT dimensions: (  24,  24,  24)

     Estimated max dynamical RAM per process >       3.22 MB

     Initial potential from superposition of free atoms

     starting charge    7.99889, renormalised to    8.00000
     Starting wfcs are    8 randomized atomic wfcs

     total cpu time spent up to now is        0.2 secs

     Self-consistent Calculation

     iteration #  1     ecut=    25.00 Ry     beta= 0.70
     Davidson diagonalization with overlap
     ethr =  1.00E-02,  avg # of iterations =  2.0

     total cpu time spent up to now is        0.3 secs

     total energy              =     -15.54131412 Ry
     estimated scf accuracy    <       0.08683743 Ry

     iteration #  2     ecut=    25.00 Ry     beta= 0.70
     Davidson diagonalization with overlap
     ethr =  1.09E-03,  avg # of iterations =  1.9

     total cpu time spent up to now is        0.4 secs

     total energy              =     -15.54974074 Ry
     estimated scf accuracy    <       0.00464899 Ry

     iteration #  3     ecut=    25.00 Ry     beta= 0.70
     Davidson diagonalization with overlap
     ethr =  5.81E-05,  avg # of iterations =  2.8

     total cpu time spent up to now is        0.5 secs

     total energy              =     -15.55154525 Ry
     estimated scf accuracy    <       0.00014738 Ry

     iteration #  4     ecut=    25.00 Ry     beta= 0.70
     Davidson diagonalization with overlap
     ethr =  1.84E-06,  avg # of iterations =  4.6

     total cpu time spent up to now is        0.6 secs

     total energy              =     -15.55167401 Ry
     estimated scf accuracy    <       0.00001040 Ry

     iteration #  5     ecut=    25.00 Ry     beta= 0.70
     Davidson diagonalization with overlap
     ethr =  1.30E-07,  avg # of iterations =  3.6

     total cpu time spent up to now is        0.7 secs

     End of self-consistent calculation

          k =-0.0833 0.0833 0.0833 (   375 PWs)   bands (ev):

    -3.8071  10.0953  10.9024  10.9024

          k =-0.2500 0.2500-0.0833 (   375 PWs)   bands (ev):

    -3.1453   7.5762   9.1631  10.7230

          k =-0.4167 0.4167-0.2500 (   384 PWs)   bands (ev):

    -1.5670   3.8253   8.6937   9.8645

          k = 0.4167-0.4167 0.5833 (   387 PWs)   bands (ev):

    -0.3800   2.0596   8.8984   9.2910

          k = 0.2500-0.2500 0.4167 (   379 PWs)   bands (ev):

    -2.1793   5.0020   9.2795   9.6001

          k = 0.0833-0.0833 0.2500 (   372 PWs)   bands (ev):

    -3.4745   8.8743   9.9273  10.4547

          k =-0.0833 0.4167 0.0833 (   374 PWs)   bands (ev):

    -2.8138   7.6451   8.9057   9.1745

          k =-0.2500 0.5833-0.0833 (   388 PWs)   bands (ev):

    -1.5287   5.3298   7.1451   8.4095

          k = 0.5833-0.2500 0.7500 (   384 PWs)   bands (ev):

     0.2628   2.5587   6.5028   8.0032

          k = 0.4167-0.0833 0.5833 (   387 PWs)   bands (ev):

    -0.9320   4.2774   6.2230   8.7920

          k = 0.2500 0.0833 0.4167 (   380 PWs)   bands (ev):

    -2.4926   6.3799   8.1134   9.8853

          k =-0.0833 0.7500 0.0833 (   385 PWs)   bands (ev):

    -0.5553   4.6212   6.9148   7.5153

          k = 0.7500-0.0833 0.9167 (   386 PWs)   bands (ev):

     1.2021   2.8275   5.5396   6.8106

          k = 0.5833 0.0833 0.7500 (   391 PWs)   bands (ev):

     0.8480   2.9131   4.9780   7.6136

          k = 0.4167 0.2500 0.5833 (   386 PWs)   bands (ev):

    -0.7005   2.9642   7.8158   8.9710

          k =-0.0833-0.9167 0.0833 (   385 PWs)   bands (ev):

     0.9945   2.7604   6.5256   7.2283

          k =-0.2500-0.7500-0.0833 (   388 PWs)   bands (ev):

    -0.2786   4.2479   6.1765   7.2670

          k =-0.0833-0.5833 0.0833 (   382 PWs)   bands (ev):

    -1.8350   6.3192   7.8010   8.0816

          k =-0.2500 0.2500 0.2500 (   380 PWs)   bands (ev):

    -2.8208   6.2009  10.0988  10.0988

          k =-0.4167 0.4167 0.0833 (   386 PWs)   bands (ev):

    -1.8583   5.2225   7.0933   9.9243

          k = 0.4167-0.4167 0.9167 (   388 PWs)   bands (ev):

    -0.0922   3.4342   5.4435   8.7442

          k = 0.2500-0.2500 0.7500 (   390 PWs)   bands (ev):

    -0.0516   3.3480   6.2298   8.0287

          k =-0.2500 0.5833 0.2500 (   385 PWs)   bands (ev):

    -1.2400   4.0537   8.0328   8.5506

          k = 0.5833-0.2500 1.0833 (   386 PWs)   bands (ev):

     0.2352   3.5300   5.5500   7.1960

          k = 0.4167-0.0833 0.9167 (   389 PWs)   bands (ev):

     1.4839   2.8084   5.0322   6.1594

          k =-0.2500-1.0833 0.2500 (   386 PWs)   bands (ev):

     1.2009   2.7462   4.8556   7.7596

          k =-0.4167 0.4167 0.4167 (   386 PWs)   bands (ev):

    -1.0227   2.6973   9.6500   9.6500

          k = 0.4167-0.4167 1.2500 (   387 PWs)   bands (ev):

    -0.0612   2.3296   7.1924   8.9451

     highest occupied level (ev):    10.9024

!    total energy              =     -15.55167753 Ry
     estimated scf accuracy    <       0.00000048 Ry

     The total energy is the sum of the following terms:
     one-electron contribution =       8.09566625 Ry
     hartree contribution      =       0.77945872 Ry
     xc contribution           =      -5.27374276 Ry
     ewald contribution        =     -19.15305974 Ry

     convergence has been achieved in   5 iterations

     Writing output data file ./Si_exc1.save/

     init_run     :      0.14s CPU      0.14s WALL (       1 calls)
     electrons    :      0.57s CPU      0.58s WALL (       1 calls)

     Called by init_run:
     wfcinit      :      0.07s CPU      0.07s WALL (       1 calls)
     potinit      :      0.01s CPU      0.01s WALL (       1 calls)
     hinit0       :      0.06s CPU      0.06s WALL (       1 calls)

     Called by electrons:
     c_bands      :      0.46s CPU      0.46s WALL (       5 calls)
     sum_band     :      0.08s CPU      0.08s WALL (       5 calls)
     v_of_rho     :      0.04s CPU      0.04s WALL (       6 calls)
     mix_rho      :      0.00s CPU      0.00s WALL (       5 calls)

     Called by c_bands:
     init_us_2    :      0.02s CPU      0.02s WALL (     308 calls)
     cegterg      :      0.44s CPU      0.44s WALL (     140 calls)

     Called by *egterg:
     cdiaghg      :      0.01s CPU      0.01s WALL (     557 calls)
     h_psi        :      0.46s CPU      0.46s WALL (     585 calls)
     g_psi        :      0.00s CPU      0.00s WALL (     417 calls)

     Called by h_psi:
     h_psi:calbec :      0.01s CPU      0.01s WALL (     585 calls)
     vloc_psi     :      0.44s CPU      0.44s WALL (     585 calls)
     add_vuspsi   :      0.01s CPU      0.01s WALL (     585 calls)

     General routines
     calbec       :      0.01s CPU      0.01s WALL (     585 calls)
     fft          :      0.02s CPU      0.02s WALL (      59 calls)
     ffts         :      0.00s CPU      0.00s WALL (       5 calls)
     fftw         :      0.43s CPU      0.43s WALL (    4560 calls)

     Parallel routines

     PWSCF        :      0.75s CPU      0.76s WALL


   This run was terminated on:  18:31: 6  19Sep2022            

=------------------------------------------------------------------------------=
   JOB DONE.
=------------------------------------------------------------------------------=
