
     Program PWSCF v.6.7MaX starts on 19Sep2022 at 17:48:26 

     This program is part of the open-source Quantum ESPRESSO suite
     for quantum simulation of materials; please cite
         "P. Giannozzi et al., J. Phys.:Condens. Matter 21 395502 (2009);
         "P. Giannozzi et al., J. Phys.:Condens. Matter 29 465901 (2017);
          URL http://www.quantum-espresso.org", 
     in publications or presentations arising from this work. More details at
     http://www.quantum-espresso.org/quote

     Parallel version (MPI), running on     1 processors

     MPI processes distributed on     1 nodes
     Waiting for input...
     Reading input from standard input

     Current dimensions of program PWSCF are:
     Max number of different atomic species (ntypx) = 10
     Max number of k-points (npk) =  40000
     Max angular momentum in pseudopotentials (lmaxx) =  3

     Subspace diagonalization in iterative solution of the eigenvalue problem:
     a serial algorithm will be used


     G-vector sticks info
     --------------------
     sticks:   dense  smooth     PW     G-vecs:    dense   smooth      PW
     Sum         439     439    151                 6231     6231    1243



     bravais-lattice index     =            2
     lattice parameter (alat)  =      11.4100  a.u.
     unit-cell volume          =     371.3616 (a.u.)^3
     number of atoms/cell      =            2
     number of atomic types    =            1
     number of electrons       =         8.00
     number of Kohn-Sham states=            4
     kinetic-energy cutoff     =      25.0000  Ry
     charge density cutoff     =     100.0000  Ry
     scf convergence threshold =      1.0E-06
     mixing beta               =       0.7000
     number of iterations used =            8  plain     mixing
     Exchange-correlation=  SLA  PW   PBE  PBE
                           (   1   4   3   4   0   0   0)

     celldm(1)=  11.410000  celldm(2)=   0.000000  celldm(3)=   0.000000
     celldm(4)=   0.000000  celldm(5)=   0.000000  celldm(6)=   0.000000

     crystal axes: (cart. coord. in units of alat)
               a(1) = (  -0.500000   0.000000   0.500000 )  
               a(2) = (   0.000000   0.500000   0.500000 )  
               a(3) = (  -0.500000   0.500000   0.000000 )  

     reciprocal axes: (cart. coord. in units 2 pi/alat)
               b(1) = ( -1.000000 -1.000000  1.000000 )  
               b(2) = (  1.000000  1.000000  1.000000 )  
               b(3) = ( -1.000000  1.000000 -1.000000 )  


     PseudoPot. # 1 for Si read from file:
     ./Si.pbe-rrkj.UPF
     MD5 check sum: cf7ab5690cd9a85b22c4813f7e365554
     Pseudo is Norm-conserving, Zval =  4.0
     Generated by new atomic code, or converted to UPF format
     Using radial grid of  883 points,  3 beta functions with: 
                l(1) =   0
                l(2) =   0
                l(3) =   1

     atomic species   valence    mass     pseudopotential
        Si             4.00    28.08600     Si( 1.00)

     48 Sym. Ops., with inversion, found (24 have fractional translation)



   Cartesian axes

     site n.     atom                  positions (alat units)
         1           Si  tau(   1) = (   0.0000000   0.0000000   0.0000000  )
         2           Si  tau(   2) = (   0.2500000   0.2500000   0.2500000  )

     number of k points=    28
                       cart. coord. in units 2pi/alat
        k(    1) = (  -0.0833333   0.0833333   0.0833333), wk =   0.0185185
        k(    2) = (  -0.2500000   0.2500000  -0.0833333), wk =   0.0555556
        k(    3) = (  -0.4166667   0.4166667  -0.2500000), wk =   0.0555556
        k(    4) = (   0.4166667  -0.4166667   0.5833333), wk =   0.0555556
        k(    5) = (   0.2500000  -0.2500000   0.4166667), wk =   0.0555556
        k(    6) = (   0.0833333  -0.0833333   0.2500000), wk =   0.0555556
        k(    7) = (  -0.0833333   0.4166667   0.0833333), wk =   0.0555556
        k(    8) = (  -0.2500000   0.5833333  -0.0833333), wk =   0.1111111
        k(    9) = (   0.5833333  -0.2500000   0.7500000), wk =   0.1111111
        k(   10) = (   0.4166667  -0.0833333   0.5833333), wk =   0.1111111
        k(   11) = (   0.2500000   0.0833333   0.4166667), wk =   0.1111111
        k(   12) = (  -0.0833333   0.7500000   0.0833333), wk =   0.0555556
        k(   13) = (   0.7500000  -0.0833333   0.9166667), wk =   0.1111111
        k(   14) = (   0.5833333   0.0833333   0.7500000), wk =   0.1111111
        k(   15) = (   0.4166667   0.2500000   0.5833333), wk =   0.1111111
        k(   16) = (  -0.0833333  -0.9166667   0.0833333), wk =   0.0555556
        k(   17) = (  -0.2500000  -0.7500000  -0.0833333), wk =   0.1111111
        k(   18) = (  -0.0833333  -0.5833333   0.0833333), wk =   0.0555556
        k(   19) = (  -0.2500000   0.2500000   0.2500000), wk =   0.0185185
        k(   20) = (  -0.4166667   0.4166667   0.0833333), wk =   0.0555556
        k(   21) = (   0.4166667  -0.4166667   0.9166667), wk =   0.0555556
        k(   22) = (   0.2500000  -0.2500000   0.7500000), wk =   0.0555556
        k(   23) = (  -0.2500000   0.5833333   0.2500000), wk =   0.0555556
        k(   24) = (   0.5833333  -0.2500000   1.0833333), wk =   0.1111111
        k(   25) = (   0.4166667  -0.0833333   0.9166667), wk =   0.1111111
        k(   26) = (  -0.2500000  -1.0833333   0.2500000), wk =   0.0555556
        k(   27) = (  -0.4166667   0.4166667   0.4166667), wk =   0.0185185
        k(   28) = (   0.4166667  -0.4166667   1.2500000), wk =   0.0555556

     Dense  grid:     6231 G-vectors     FFT dimensions: (  32,  32,  32)

     Estimated max dynamical RAM per process >       6.68 MB

     Initial potential from superposition of free atoms

     starting charge    7.99889, renormalised to    8.00000
     Starting wfcs are    8 randomized atomic wfcs

     total cpu time spent up to now is        0.2 secs

     Self-consistent Calculation

     iteration #  1     ecut=    25.00 Ry     beta= 0.70
     Davidson diagonalization with overlap
     ethr =  1.00E-02,  avg # of iterations =  1.9

     Threshold (ethr) on eigenvalues was too large:
     Diagonalizing with lowered threshold

     Davidson diagonalization with overlap
     ethr =  3.36E-04,  avg # of iterations =  2.3

     total cpu time spent up to now is        0.6 secs

     total energy              =     -15.68541877 Ry
     estimated scf accuracy    <       0.03230109 Ry

     iteration #  2     ecut=    25.00 Ry     beta= 0.70
     Davidson diagonalization with overlap
     ethr =  4.04E-04,  avg # of iterations =  1.0

     total cpu time spent up to now is        0.8 secs

     total energy              =     -15.68591167 Ry
     estimated scf accuracy    <       0.00247158 Ry

     iteration #  3     ecut=    25.00 Ry     beta= 0.70
     Davidson diagonalization with overlap
     ethr =  3.09E-05,  avg # of iterations =  1.7

     total cpu time spent up to now is        1.0 secs

     total energy              =     -15.68610594 Ry
     estimated scf accuracy    <       0.00002326 Ry

     iteration #  4     ecut=    25.00 Ry     beta= 0.70
     Davidson diagonalization with overlap
     ethr =  2.91E-07,  avg # of iterations =  6.4

     total cpu time spent up to now is        1.3 secs

     End of self-consistent calculation

          k =-0.0833 0.0833 0.0833 (   791 PWs)   bands (ev):

    -6.6011   2.2382   3.2507   3.2507

          k =-0.2500 0.2500-0.0833 (   792 PWs)   bands (ev):

    -6.2441   0.4611   2.3496   3.0645

          k =-0.4167 0.4167-0.2500 (   786 PWs)   bands (ev):

    -5.4532  -1.5898   1.9116   2.5824

          k = 0.4167-0.4167 0.5833 (   786 PWs)   bands (ev):

    -4.9934  -2.3877   1.9153   2.3092

          k = 0.2500-0.2500 0.4167 (   786 PWs)   bands (ev):

    -5.7447  -0.9690   2.2960   2.3845

          k = 0.0833-0.0833 0.2500 (   793 PWs)   bands (ev):

    -6.4201   1.2256   2.7995   2.8553

          k =-0.0833 0.4167 0.0833 (   793 PWs)   bands (ev):

    -6.0618   0.1217   2.2008   2.2601

          k =-0.2500 0.5833-0.0833 (   786 PWs)   bands (ev):

    -5.3896  -1.3136   1.2697   1.9539

          k = 0.5833-0.2500 0.7500 (   784 PWs)   bands (ev):

    -4.6260  -2.5120   0.7605   1.8043

          k = 0.4167-0.0833 0.5833 (   784 PWs)   bands (ev):

    -5.1137  -1.7962   0.8066   2.1370

          k = 0.2500 0.0833 0.4167 (   790 PWs)   bands (ev):

    -5.8971  -0.4212   1.7733   2.5903

          k =-0.0833 0.7500 0.0833 (   781 PWs)   bands (ev):

    -4.8494  -2.0617   1.2617   1.4762

          k = 0.7500-0.0833 0.9167 (   776 PWs)   bands (ev):

    -3.9844  -3.0869   0.7045   1.2157

          k = 0.5833 0.0833 0.7500 (   782 PWs)   bands (ev):

    -4.3085  -2.7414   0.3483   1.6066

          k = 0.4167 0.2500 0.5833 (   787 PWs)   bands (ev):

    -5.0564  -2.1187   1.3582   2.1961

          k =-0.0833-0.9167 0.0833 (   775 PWs)   bands (ev):

    -4.0271  -3.0842   1.0660   1.3100

          k =-0.2500-0.7500-0.0833 (   778 PWs)   bands (ev):

    -4.7399  -2.2094   0.9014   1.4671

          k =-0.0833-0.5833 0.0833 (   791 PWs)   bands (ev):

    -5.5341  -0.9834   1.6466   1.8002

          k =-0.2500 0.2500 0.2500 (   790 PWs)   bands (ev):

    -6.0752  -0.2132   2.7827   2.7827

          k =-0.4167 0.4167 0.0833 (   792 PWs)   bands (ev):

    -5.5753  -1.1089   1.2382   2.6373

          k = 0.4167-0.4167 0.9167 (   785 PWs)   bands (ev):

    -4.7358  -2.2922   0.4673   2.0752

          k = 0.2500-0.2500 0.7500 (   781 PWs)   bands (ev):

    -4.6857  -2.3604   0.7757   1.7313

          k =-0.2500 0.5833 0.2500 (   783 PWs)   bands (ev):

    -5.2695  -1.6835   1.4642   2.0094

          k = 0.5833-0.2500 1.0833 (   779 PWs)   bands (ev):

    -4.5437  -2.4629   0.5514   1.4888

          k = 0.4167-0.0833 0.9167 (   772 PWs)   bands (ev):

    -3.9380  -3.0933   0.4850   1.0307

          k =-0.2500-1.0833 0.2500 (   775 PWs)   bands (ev):

    -4.1017  -2.9656   0.3923   1.5852

          k =-0.4167 0.4167 0.4167 (   778 PWs)   bands (ev):

    -5.2374  -2.0854   2.4662   2.4662

          k = 0.4167-0.4167 1.2500 (   780 PWs)   bands (ev):

    -4.8124  -2.4216   1.0615   2.1622

     highest occupied level (ev):     3.2507

!    total energy              =     -15.68616979 Ry
     estimated scf accuracy    <       0.00000016 Ry

     The total energy is the sum of the following terms:
     one-electron contribution =       2.53779729 Ry
     hartree contribution      =       1.38997413 Ry
     xc contribution           =      -4.50635683 Ry
     ewald contribution        =     -15.10758437 Ry

     convergence has been achieved in   4 iterations

     Writing output data file ./Si_exc1.save/

     init_run     :      0.19s CPU      0.19s WALL (       1 calls)
     electrons    :      1.11s CPU      1.17s WALL (       1 calls)

     Called by init_run:
     wfcinit      :      0.13s CPU      0.13s WALL (       1 calls)
     potinit      :      0.02s CPU      0.02s WALL (       1 calls)
     hinit0       :      0.04s CPU      0.04s WALL (       1 calls)

     Called by electrons:
     c_bands      :      0.89s CPU      0.90s WALL (       5 calls)
     sum_band     :      0.16s CPU      0.16s WALL (       5 calls)
     v_of_rho     :      0.08s CPU      0.08s WALL (       5 calls)
     mix_rho      :      0.00s CPU      0.00s WALL (       5 calls)

     Called by c_bands:
     init_us_2    :      0.04s CPU      0.04s WALL (     308 calls)
     cegterg      :      0.86s CPU      0.87s WALL (     140 calls)

     Called by *egterg:
     cdiaghg      :      0.01s CPU      0.01s WALL (     483 calls)
     h_psi        :      0.91s CPU      0.92s WALL (     539 calls)
     g_psi        :      0.01s CPU      0.01s WALL (     371 calls)

     Called by h_psi:
     h_psi:calbec :      0.01s CPU      0.01s WALL (     539 calls)
     vloc_psi     :      0.88s CPU      0.89s WALL (     539 calls)
     add_vuspsi   :      0.01s CPU      0.01s WALL (     539 calls)

     General routines
     calbec       :      0.01s CPU      0.01s WALL (     539 calls)
     fft          :      0.01s CPU      0.01s WALL (      50 calls)
     ffts         :      0.00s CPU      0.00s WALL (       5 calls)
     fftw         :      0.83s CPU      0.84s WALL (    4338 calls)

     Parallel routines

     PWSCF        :      1.35s CPU      1.42s WALL


   This run was terminated on:  17:48:28  19Sep2022            

=------------------------------------------------------------------------------=
   JOB DONE.
=------------------------------------------------------------------------------=
