
     Program PWSCF v.6.7MaX starts on 19Sep2022 at 18:31:16 

     This program is part of the open-source Quantum ESPRESSO suite
     for quantum simulation of materials; please cite
         "P. Giannozzi et al., J. Phys.:Condens. Matter 21 395502 (2009);
         "P. Giannozzi et al., J. Phys.:Condens. Matter 29 465901 (2017);
          URL http://www.quantum-espresso.org", 
     in publications or presentations arising from this work. More details at
     http://www.quantum-espresso.org/quote

     Parallel version (MPI), running on     1 processors

     MPI processes distributed on     1 nodes
     Waiting for input...
     Reading input from standard input

     Current dimensions of program PWSCF are:
     Max number of different atomic species (ntypx) = 10
     Max number of k-points (npk) =  40000
     Max angular momentum in pseudopotentials (lmaxx) =  3

     Subspace diagonalization in iterative solution of the eigenvalue problem:
     a serial algorithm will be used


     G-vector sticks info
     --------------------
     sticks:   dense  smooth     PW     G-vecs:    dense   smooth      PW
     Sum         421     421    139                 5601     5601    1067



     bravais-lattice index     =            2
     lattice parameter (alat)  =      11.0000  a.u.
     unit-cell volume          =     332.7500 (a.u.)^3
     number of atoms/cell      =            2
     number of atomic types    =            1
     number of electrons       =         8.00
     number of Kohn-Sham states=            4
     kinetic-energy cutoff     =      25.0000  Ry
     charge density cutoff     =     100.0000  Ry
     scf convergence threshold =      1.0E-06
     mixing beta               =       0.7000
     number of iterations used =            8  plain     mixing
     Exchange-correlation=  SLA  PW   PBE  PBE
                           (   1   4   3   4   0   0   0)

     celldm(1)=  11.000000  celldm(2)=   0.000000  celldm(3)=   0.000000
     celldm(4)=   0.000000  celldm(5)=   0.000000  celldm(6)=   0.000000

     crystal axes: (cart. coord. in units of alat)
               a(1) = (  -0.500000   0.000000   0.500000 )  
               a(2) = (   0.000000   0.500000   0.500000 )  
               a(3) = (  -0.500000   0.500000   0.000000 )  

     reciprocal axes: (cart. coord. in units 2 pi/alat)
               b(1) = ( -1.000000 -1.000000  1.000000 )  
               b(2) = (  1.000000  1.000000  1.000000 )  
               b(3) = ( -1.000000  1.000000 -1.000000 )  


     PseudoPot. # 1 for Si read from file:
     ./Si.pbe-rrkj.UPF
     MD5 check sum: cf7ab5690cd9a85b22c4813f7e365554
     Pseudo is Norm-conserving, Zval =  4.0
     Generated by new atomic code, or converted to UPF format
     Using radial grid of  883 points,  3 beta functions with: 
                l(1) =   0
                l(2) =   0
                l(3) =   1

     atomic species   valence    mass     pseudopotential
        Si             4.00    28.08600     Si( 1.00)

     48 Sym. Ops., with inversion, found (24 have fractional translation)



   Cartesian axes

     site n.     atom                  positions (alat units)
         1           Si  tau(   1) = (   0.0000000   0.0000000   0.0000000  )
         2           Si  tau(   2) = (   0.2500000   0.2500000   0.2500000  )

     number of k points=    28
                       cart. coord. in units 2pi/alat
        k(    1) = (  -0.0833333   0.0833333   0.0833333), wk =   0.0185185
        k(    2) = (  -0.2500000   0.2500000  -0.0833333), wk =   0.0555556
        k(    3) = (  -0.4166667   0.4166667  -0.2500000), wk =   0.0555556
        k(    4) = (   0.4166667  -0.4166667   0.5833333), wk =   0.0555556
        k(    5) = (   0.2500000  -0.2500000   0.4166667), wk =   0.0555556
        k(    6) = (   0.0833333  -0.0833333   0.2500000), wk =   0.0555556
        k(    7) = (  -0.0833333   0.4166667   0.0833333), wk =   0.0555556
        k(    8) = (  -0.2500000   0.5833333  -0.0833333), wk =   0.1111111
        k(    9) = (   0.5833333  -0.2500000   0.7500000), wk =   0.1111111
        k(   10) = (   0.4166667  -0.0833333   0.5833333), wk =   0.1111111
        k(   11) = (   0.2500000   0.0833333   0.4166667), wk =   0.1111111
        k(   12) = (  -0.0833333   0.7500000   0.0833333), wk =   0.0555556
        k(   13) = (   0.7500000  -0.0833333   0.9166667), wk =   0.1111111
        k(   14) = (   0.5833333   0.0833333   0.7500000), wk =   0.1111111
        k(   15) = (   0.4166667   0.2500000   0.5833333), wk =   0.1111111
        k(   16) = (  -0.0833333  -0.9166667   0.0833333), wk =   0.0555556
        k(   17) = (  -0.2500000  -0.7500000  -0.0833333), wk =   0.1111111
        k(   18) = (  -0.0833333  -0.5833333   0.0833333), wk =   0.0555556
        k(   19) = (  -0.2500000   0.2500000   0.2500000), wk =   0.0185185
        k(   20) = (  -0.4166667   0.4166667   0.0833333), wk =   0.0555556
        k(   21) = (   0.4166667  -0.4166667   0.9166667), wk =   0.0555556
        k(   22) = (   0.2500000  -0.2500000   0.7500000), wk =   0.0555556
        k(   23) = (  -0.2500000   0.5833333   0.2500000), wk =   0.0555556
        k(   24) = (   0.5833333  -0.2500000   1.0833333), wk =   0.1111111
        k(   25) = (   0.4166667  -0.0833333   0.9166667), wk =   0.1111111
        k(   26) = (  -0.2500000  -1.0833333   0.2500000), wk =   0.0555556
        k(   27) = (  -0.4166667   0.4166667   0.4166667), wk =   0.0185185
        k(   28) = (   0.4166667  -0.4166667   1.2500000), wk =   0.0555556

     Dense  grid:     5601 G-vectors     FFT dimensions: (  32,  32,  32)

     Estimated max dynamical RAM per process >       6.24 MB

     Initial potential from superposition of free atoms

     starting charge    7.99889, renormalised to    8.00000
     Starting wfcs are    8 randomized atomic wfcs

     total cpu time spent up to now is        0.2 secs

     Self-consistent Calculation

     iteration #  1     ecut=    25.00 Ry     beta= 0.70
     Davidson diagonalization with overlap
     ethr =  1.00E-02,  avg # of iterations =  2.0

     Threshold (ethr) on eigenvalues was too large:
     Diagonalizing with lowered threshold

     Davidson diagonalization with overlap
     ethr =  4.05E-04,  avg # of iterations =  2.2

     total cpu time spent up to now is        0.6 secs

     total energy              =     -15.71669866 Ry
     estimated scf accuracy    <       0.03919135 Ry

     iteration #  2     ecut=    25.00 Ry     beta= 0.70
     Davidson diagonalization with overlap
     ethr =  4.90E-04,  avg # of iterations =  1.0

     total cpu time spent up to now is        0.7 secs

     total energy              =     -15.71753801 Ry
     estimated scf accuracy    <       0.00267785 Ry

     iteration #  3     ecut=    25.00 Ry     beta= 0.70
     Davidson diagonalization with overlap
     ethr =  3.35E-05,  avg # of iterations =  1.8

     total cpu time spent up to now is        0.9 secs

     total energy              =     -15.71782111 Ry
     estimated scf accuracy    <       0.00003973 Ry

     iteration #  4     ecut=    25.00 Ry     beta= 0.70
     Davidson diagonalization with overlap
     ethr =  4.97E-07,  avg # of iterations =  5.6

     total cpu time spent up to now is        1.3 secs

     End of self-consistent calculation

          k =-0.0833 0.0833 0.0833 (   706 PWs)   bands (ev):

    -6.2822   3.3190   4.1363   4.1363

          k =-0.2500 0.2500-0.0833 (   694 PWs)   bands (ev):

    -5.8859   1.4153   3.1277   3.9398

          k =-0.4167 0.4167-0.2500 (   703 PWs)   bands (ev):

    -4.9972  -0.8824   2.6807   3.4069

          k = 0.4167-0.4167 0.5833 (   707 PWs)   bands (ev):

    -4.4637  -1.7924   2.7041   3.0999

          k = 0.2500-0.2500 0.4167 (   701 PWs)   bands (ev):

    -5.3274  -0.1848   3.1219   3.1723

          k = 0.0833-0.0833 0.2500 (   697 PWs)   bands (ev):

    -6.0816   2.2739   3.6238   3.7157

          k =-0.0833 0.4167 0.0833 (   700 PWs)   bands (ev):

    -5.6843   1.1177   2.9715   3.0225

          k =-0.2500 0.5833-0.0833 (   696 PWs)   bands (ev):

    -4.9342  -0.4619   1.9192   2.6898

          k = 0.5833-0.2500 0.7500 (   701 PWs)   bands (ev):

    -4.0601  -1.8347   1.3745   2.5169

          k = 0.4167-0.0833 0.5833 (   700 PWs)   bands (ev):

    -4.6204  -1.0126   1.3976   2.8972

          k = 0.2500 0.0833 0.4167 (   704 PWs)   bands (ev):

    -5.4997   0.4775   2.4853   3.4167

          k =-0.0833 0.7500 0.0833 (   698 PWs)   bands (ev):

    -4.3377  -1.2468   1.9060   2.1581

          k = 0.7500-0.0833 0.9167 (   704 PWs)   bands (ev):

    -3.3663  -2.3776   1.2608   1.8537

          k = 0.5833 0.0833 0.7500 (   702 PWs)   bands (ev):

    -3.7092  -2.0275   0.8608   2.2941

          k = 0.4167 0.2500 0.5833 (   703 PWs)   bands (ev):

    -4.5467  -1.4475   2.0722   2.9677

          k =-0.0833-0.9167 0.0833 (   712 PWs)   bands (ev):

    -3.4233  -2.3771   1.6868   1.9757

          k =-0.2500-0.7500-0.0833 (   702 PWs)   bands (ev):

    -4.2097  -1.4185   1.4942   2.1344

          k =-0.0833-0.5833 0.0833 (   704 PWs)   bands (ev):

    -5.0985  -0.0680   2.3404   2.5146

          k =-0.2500 0.2500 0.2500 (   697 PWs)   bands (ev):

    -5.6972   0.6338   3.6200   3.6200

          k =-0.4167 0.4167 0.0833 (   701 PWs)   bands (ev):

    -5.1388  -0.2807   1.8857   3.4655

          k = 0.4167-0.4167 0.9167 (   701 PWs)   bands (ev):

    -4.1907  -1.5555   1.0080   2.8326

          k = 0.2500-0.2500 0.7500 (   701 PWs)   bands (ev):

    -4.1393  -1.6270   1.3692   2.4448

          k =-0.2500 0.5833 0.2500 (   705 PWs)   bands (ev):

    -4.7948  -0.9312   2.1840   2.7537

          k = 0.5833-0.2500 1.0833 (   703 PWs)   bands (ev):

    -3.9804  -1.7132   1.0986   2.1502

          k = 0.4167-0.0833 0.9167 (   706 PWs)   bands (ev):

    -3.3031  -2.3846   1.0065   1.6263

          k =-0.2500-1.0833 0.2500 (   701 PWs)   bands (ev):

    -3.4823  -2.2636   0.9028   2.2829

          k =-0.4167 0.4167 0.4167 (   709 PWs)   bands (ev):

    -4.7459  -1.4610   3.2781   3.2781

          k = 0.4167-0.4167 1.2500 (   698 PWs)   bands (ev):

    -4.2647  -1.7812   1.7333   2.9320

     highest occupied level (ev):     4.1363

!    total energy              =     -15.71788710 Ry
     estimated scf accuracy    <       0.00000005 Ry

     The total energy is the sum of the following terms:
     one-electron contribution =       3.27529128 Ry
     hartree contribution      =       1.28235282 Ry
     xc contribution           =      -4.60484596 Ry
     ewald contribution        =     -15.67068524 Ry

     convergence has been achieved in   4 iterations

     Writing output data file ./Si_exc1.save/

     init_run     :      0.18s CPU      0.19s WALL (       1 calls)
     electrons    :      1.00s CPU      1.08s WALL (       1 calls)

     Called by init_run:
     wfcinit      :      0.12s CPU      0.12s WALL (       1 calls)
     potinit      :      0.02s CPU      0.02s WALL (       1 calls)
     hinit0       :      0.04s CPU      0.04s WALL (       1 calls)

     Called by electrons:
     c_bands      :      0.78s CPU      0.82s WALL (       5 calls)
     sum_band     :      0.15s CPU      0.15s WALL (       5 calls)
     v_of_rho     :      0.07s CPU      0.08s WALL (       5 calls)
     mix_rho      :      0.00s CPU      0.00s WALL (       5 calls)

     Called by c_bands:
     init_us_2    :      0.04s CPU      0.04s WALL (     308 calls)
     cegterg      :      0.76s CPU      0.80s WALL (     140 calls)

     Called by *egterg:
     cdiaghg      :      0.01s CPU      0.01s WALL (     464 calls)
     h_psi        :      0.82s CPU      0.85s WALL (     520 calls)
     g_psi        :      0.01s CPU      0.01s WALL (     352 calls)

     Called by h_psi:
     h_psi:calbec :      0.01s CPU      0.01s WALL (     520 calls)
     vloc_psi     :      0.79s CPU      0.82s WALL (     520 calls)
     add_vuspsi   :      0.01s CPU      0.01s WALL (     520 calls)

     General routines
     calbec       :      0.01s CPU      0.01s WALL (     520 calls)
     fft          :      0.01s CPU      0.01s WALL (      50 calls)
     ffts         :      0.00s CPU      0.00s WALL (       5 calls)
     fftw         :      0.75s CPU      0.78s WALL (    4232 calls)

     Parallel routines

     PWSCF        :      1.23s CPU      1.32s WALL


   This run was terminated on:  18:31:17  19Sep2022            

=------------------------------------------------------------------------------=
   JOB DONE.
=------------------------------------------------------------------------------=
