
     Program PWSCF v.6.7MaX starts on 19Sep2022 at 18:31:18 

     This program is part of the open-source Quantum ESPRESSO suite
     for quantum simulation of materials; please cite
         "P. Giannozzi et al., J. Phys.:Condens. Matter 21 395502 (2009);
         "P. Giannozzi et al., J. Phys.:Condens. Matter 29 465901 (2017);
          URL http://www.quantum-espresso.org", 
     in publications or presentations arising from this work. More details at
     http://www.quantum-espresso.org/quote

     Parallel version (MPI), running on     1 processors

     MPI processes distributed on     1 nodes
     Waiting for input...
     Reading input from standard input

     Current dimensions of program PWSCF are:
     Max number of different atomic species (ntypx) = 10
     Max number of k-points (npk) =  40000
     Max angular momentum in pseudopotentials (lmaxx) =  3

     Subspace diagonalization in iterative solution of the eigenvalue problem:
     a serial algorithm will be used


     G-vector sticks info
     --------------------
     sticks:   dense  smooth     PW     G-vecs:    dense   smooth      PW
     Sum         433     433    151                 5961     5961    1139



     bravais-lattice index     =            2
     lattice parameter (alat)  =      11.2000  a.u.
     unit-cell volume          =     351.2320 (a.u.)^3
     number of atoms/cell      =            2
     number of atomic types    =            1
     number of electrons       =         8.00
     number of Kohn-Sham states=            4
     kinetic-energy cutoff     =      25.0000  Ry
     charge density cutoff     =     100.0000  Ry
     scf convergence threshold =      1.0E-06
     mixing beta               =       0.7000
     number of iterations used =            8  plain     mixing
     Exchange-correlation=  SLA  PW   PBE  PBE
                           (   1   4   3   4   0   0   0)

     celldm(1)=  11.200000  celldm(2)=   0.000000  celldm(3)=   0.000000
     celldm(4)=   0.000000  celldm(5)=   0.000000  celldm(6)=   0.000000

     crystal axes: (cart. coord. in units of alat)
               a(1) = (  -0.500000   0.000000   0.500000 )  
               a(2) = (   0.000000   0.500000   0.500000 )  
               a(3) = (  -0.500000   0.500000   0.000000 )  

     reciprocal axes: (cart. coord. in units 2 pi/alat)
               b(1) = ( -1.000000 -1.000000  1.000000 )  
               b(2) = (  1.000000  1.000000  1.000000 )  
               b(3) = ( -1.000000  1.000000 -1.000000 )  


     PseudoPot. # 1 for Si read from file:
     ./Si.pbe-rrkj.UPF
     MD5 check sum: cf7ab5690cd9a85b22c4813f7e365554
     Pseudo is Norm-conserving, Zval =  4.0
     Generated by new atomic code, or converted to UPF format
     Using radial grid of  883 points,  3 beta functions with: 
                l(1) =   0
                l(2) =   0
                l(3) =   1

     atomic species   valence    mass     pseudopotential
        Si             4.00    28.08600     Si( 1.00)

     48 Sym. Ops., with inversion, found (24 have fractional translation)



   Cartesian axes

     site n.     atom                  positions (alat units)
         1           Si  tau(   1) = (   0.0000000   0.0000000   0.0000000  )
         2           Si  tau(   2) = (   0.2500000   0.2500000   0.2500000  )

     number of k points=    28
                       cart. coord. in units 2pi/alat
        k(    1) = (  -0.0833333   0.0833333   0.0833333), wk =   0.0185185
        k(    2) = (  -0.2500000   0.2500000  -0.0833333), wk =   0.0555556
        k(    3) = (  -0.4166667   0.4166667  -0.2500000), wk =   0.0555556
        k(    4) = (   0.4166667  -0.4166667   0.5833333), wk =   0.0555556
        k(    5) = (   0.2500000  -0.2500000   0.4166667), wk =   0.0555556
        k(    6) = (   0.0833333  -0.0833333   0.2500000), wk =   0.0555556
        k(    7) = (  -0.0833333   0.4166667   0.0833333), wk =   0.0555556
        k(    8) = (  -0.2500000   0.5833333  -0.0833333), wk =   0.1111111
        k(    9) = (   0.5833333  -0.2500000   0.7500000), wk =   0.1111111
        k(   10) = (   0.4166667  -0.0833333   0.5833333), wk =   0.1111111
        k(   11) = (   0.2500000   0.0833333   0.4166667), wk =   0.1111111
        k(   12) = (  -0.0833333   0.7500000   0.0833333), wk =   0.0555556
        k(   13) = (   0.7500000  -0.0833333   0.9166667), wk =   0.1111111
        k(   14) = (   0.5833333   0.0833333   0.7500000), wk =   0.1111111
        k(   15) = (   0.4166667   0.2500000   0.5833333), wk =   0.1111111
        k(   16) = (  -0.0833333  -0.9166667   0.0833333), wk =   0.0555556
        k(   17) = (  -0.2500000  -0.7500000  -0.0833333), wk =   0.1111111
        k(   18) = (  -0.0833333  -0.5833333   0.0833333), wk =   0.0555556
        k(   19) = (  -0.2500000   0.2500000   0.2500000), wk =   0.0185185
        k(   20) = (  -0.4166667   0.4166667   0.0833333), wk =   0.0555556
        k(   21) = (   0.4166667  -0.4166667   0.9166667), wk =   0.0555556
        k(   22) = (   0.2500000  -0.2500000   0.7500000), wk =   0.0555556
        k(   23) = (  -0.2500000   0.5833333   0.2500000), wk =   0.0555556
        k(   24) = (   0.5833333  -0.2500000   1.0833333), wk =   0.1111111
        k(   25) = (   0.4166667  -0.0833333   0.9166667), wk =   0.1111111
        k(   26) = (  -0.2500000  -1.0833333   0.2500000), wk =   0.0555556
        k(   27) = (  -0.4166667   0.4166667   0.4166667), wk =   0.0185185
        k(   28) = (   0.4166667  -0.4166667   1.2500000), wk =   0.0555556

     Dense  grid:     5961 G-vectors     FFT dimensions: (  32,  32,  32)

     Estimated max dynamical RAM per process >       6.48 MB

     Initial potential from superposition of free atoms

     starting charge    7.99889, renormalised to    8.00000
     Starting wfcs are    8 randomized atomic wfcs

     total cpu time spent up to now is        0.2 secs

     Self-consistent Calculation

     iteration #  1     ecut=    25.00 Ry     beta= 0.70
     Davidson diagonalization with overlap
     ethr =  1.00E-02,  avg # of iterations =  1.9

     Threshold (ethr) on eigenvalues was too large:
     Diagonalizing with lowered threshold

     Davidson diagonalization with overlap
     ethr =  3.67E-04,  avg # of iterations =  2.2

     total cpu time spent up to now is        0.6 secs

     total energy              =     -15.70257450 Ry
     estimated scf accuracy    <       0.03557360 Ry

     iteration #  2     ecut=    25.00 Ry     beta= 0.70
     Davidson diagonalization with overlap
     ethr =  4.45E-04,  avg # of iterations =  1.0

     total cpu time spent up to now is        0.8 secs

     total energy              =     -15.70321171 Ry
     estimated scf accuracy    <       0.00259421 Ry

     iteration #  3     ecut=    25.00 Ry     beta= 0.70
     Davidson diagonalization with overlap
     ethr =  3.24E-05,  avg # of iterations =  1.7

     total cpu time spent up to now is        1.0 secs

     total energy              =     -15.70344740 Ry
     estimated scf accuracy    <       0.00003124 Ry

     iteration #  4     ecut=    25.00 Ry     beta= 0.70
     Davidson diagonalization with overlap
     ethr =  3.90E-07,  avg # of iterations =  6.0

     total cpu time spent up to now is        1.3 secs

     End of self-consistent calculation

          k =-0.0833 0.0833 0.0833 (   737 PWs)   bands (ev):

    -6.4427   2.7932   3.6892   3.6892

          k =-0.2500 0.2500-0.0833 (   748 PWs)   bands (ev):

    -6.0661   0.9434   2.7345   3.4975

          k =-0.4167 0.4167-0.2500 (   745 PWs)   bands (ev):

    -5.2266  -1.2333   2.2917   2.9900

          k = 0.4167-0.4167 0.5833 (   743 PWs)   bands (ev):

    -4.7306  -2.0870   2.3050   2.7001

          k = 0.2500-0.2500 0.4167 (   748 PWs)   bands (ev):

    -5.5372  -0.5737   2.7041   2.7742

          k = 0.0833-0.0833 0.2500 (   743 PWs)   bands (ev):

    -6.2519   1.7573   3.2076   3.2804

          k =-0.0833 0.4167 0.0833 (   740 PWs)   bands (ev):

    -5.8741   0.6225   2.5814   2.6374

          k =-0.2500 0.5833-0.0833 (   742 PWs)   bands (ev):

    -5.1631  -0.8870   1.5905   2.3179

          k = 0.5833-0.2500 0.7500 (   738 PWs)   bands (ev):

    -4.3451  -2.1715   1.0627   2.1569

          k = 0.4167-0.0833 0.5833 (   743 PWs)   bands (ev):

    -4.8684  -1.4035   1.0983   2.5130

          k = 0.2500 0.0833 0.4167 (   746 PWs)   bands (ev):

    -5.6995   0.0311   2.1251   2.9988

          k =-0.0833 0.7500 0.0833 (   742 PWs)   bands (ev):

    -4.5948  -1.6552   1.5804   1.8133

          k = 0.7500-0.0833 0.9167 (   738 PWs)   bands (ev):

    -3.6769  -2.7337   0.9800   1.5313

          k = 0.5833 0.0833 0.7500 (   736 PWs)   bands (ev):

    -4.0109  -2.3847   0.6017   1.9467

          k = 0.4167 0.2500 0.5833 (   743 PWs)   bands (ev):

    -4.8032  -1.7805   1.7102   2.5777

          k =-0.0833-0.9167 0.0833 (   740 PWs)   bands (ev):

    -3.7264  -2.7319   1.3731   1.6390

          k =-0.2500-0.7500-0.0833 (   741 PWs)   bands (ev):

    -4.4761  -1.8148   1.1945   1.7974

          k =-0.0833-0.5833 0.0833 (   734 PWs)   bands (ev):

    -5.3174  -0.5256   1.9896   2.1535

          k =-0.2500 0.2500 0.2500 (   751 PWs)   bands (ev):

    -5.8873   0.2145   3.1969   3.1969

          k =-0.4167 0.4167 0.0833 (   744 PWs)   bands (ev):

    -5.3583  -0.6927   1.5578   3.0468

          k = 0.4167-0.4167 0.9167 (   738 PWs)   bands (ev):

    -4.4650  -1.9233   0.7342   2.4497

          k = 0.2500-0.2500 0.7500 (   739 PWs)   bands (ev):

    -4.4141  -1.9930   1.0685   2.0840

          k =-0.2500 0.5833 0.2500 (   740 PWs)   bands (ev):

    -5.0335  -1.3052   1.8188   2.3775

          k = 0.5833-0.2500 1.0833 (   737 PWs)   bands (ev):

    -4.2638  -2.0885   0.8217   1.8163

          k = 0.4167-0.0833 0.9167 (   738 PWs)   bands (ev):

    -3.6225  -2.7404   0.7433   1.3257

          k =-0.2500-1.0833 0.2500 (   735 PWs)   bands (ev):

    -3.7940  -2.6154   0.6451   1.9301

          k =-0.4167 0.4167 0.4167 (   751 PWs)   bands (ev):

    -4.9934  -1.7705   2.8675   2.8675

          k = 0.4167-0.4167 1.2500 (   745 PWs)   bands (ev):

    -4.5406  -2.0987   1.3924   2.5428

     highest occupied level (ev):     3.6892

!    total energy              =     -15.70351708 Ry
     estimated scf accuracy    <       0.00000016 Ry

     The total energy is the sum of the following terms:
     one-electron contribution =       2.90823814 Ry
     hartree contribution      =       1.33442759 Ry
     xc contribution           =      -4.55533124 Ry
     ewald contribution        =     -15.39085157 Ry

     convergence has been achieved in   4 iterations

     Writing output data file ./Si_exc1.save/

     init_run     :      0.19s CPU      0.19s WALL (       1 calls)
     electrons    :      1.09s CPU      1.15s WALL (       1 calls)

     Called by init_run:
     wfcinit      :      0.13s CPU      0.13s WALL (       1 calls)
     potinit      :      0.02s CPU      0.02s WALL (       1 calls)
     hinit0       :      0.04s CPU      0.04s WALL (       1 calls)

     Called by electrons:
     c_bands      :      0.86s CPU      0.87s WALL (       5 calls)
     sum_band     :      0.16s CPU      0.16s WALL (       5 calls)
     v_of_rho     :      0.08s CPU      0.08s WALL (       5 calls)
     mix_rho      :      0.00s CPU      0.00s WALL (       5 calls)

     Called by c_bands:
     init_us_2    :      0.04s CPU      0.04s WALL (     308 calls)
     cegterg      :      0.84s CPU      0.84s WALL (     140 calls)

     Called by *egterg:
     cdiaghg      :      0.01s CPU      0.01s WALL (     470 calls)
     h_psi        :      0.89s CPU      0.90s WALL (     526 calls)
     g_psi        :      0.01s CPU      0.01s WALL (     358 calls)

     Called by h_psi:
     h_psi:calbec :      0.01s CPU      0.01s WALL (     526 calls)
     vloc_psi     :      0.86s CPU      0.87s WALL (     526 calls)
     add_vuspsi   :      0.01s CPU      0.01s WALL (     526 calls)

     General routines
     calbec       :      0.01s CPU      0.01s WALL (     526 calls)
     fft          :      0.01s CPU      0.01s WALL (      50 calls)
     ffts         :      0.00s CPU      0.00s WALL (       5 calls)
     fftw         :      0.82s CPU      0.82s WALL (    4286 calls)

     Parallel routines

     PWSCF        :      1.32s CPU      1.39s WALL


   This run was terminated on:  18:31:19  19Sep2022            

=------------------------------------------------------------------------------=
   JOB DONE.
=------------------------------------------------------------------------------=
