
     Program PWSCF v.6.7MaX starts on 19Sep2022 at 18:31: 6 

     This program is part of the open-source Quantum ESPRESSO suite
     for quantum simulation of materials; please cite
         "P. Giannozzi et al., J. Phys.:Condens. Matter 21 395502 (2009);
         "P. Giannozzi et al., J. Phys.:Condens. Matter 29 465901 (2017);
          URL http://www.quantum-espresso.org", 
     in publications or presentations arising from this work. More details at
     http://www.quantum-espresso.org/quote

     Parallel version (MPI), running on     1 processors

     MPI processes distributed on     1 nodes
     Waiting for input...
     Reading input from standard input

     Current dimensions of program PWSCF are:
     Max number of different atomic species (ntypx) = 10
     Max number of k-points (npk) =  40000
     Max angular momentum in pseudopotentials (lmaxx) =  3

     Subspace diagonalization in iterative solution of the eigenvalue problem:
     a serial algorithm will be used


     G-vector sticks info
     --------------------
     sticks:   dense  smooth     PW     G-vecs:    dense   smooth      PW
     Sum         295     295    109                 3287     3287     701



     bravais-lattice index     =            2
     lattice parameter (alat)  =       9.2000  a.u.
     unit-cell volume          =     194.6720 (a.u.)^3
     number of atoms/cell      =            2
     number of atomic types    =            1
     number of electrons       =         8.00
     number of Kohn-Sham states=            4
     kinetic-energy cutoff     =      25.0000  Ry
     charge density cutoff     =     100.0000  Ry
     scf convergence threshold =      1.0E-06
     mixing beta               =       0.7000
     number of iterations used =            8  plain     mixing
     Exchange-correlation=  SLA  PW   PBE  PBE
                           (   1   4   3   4   0   0   0)

     celldm(1)=   9.200000  celldm(2)=   0.000000  celldm(3)=   0.000000
     celldm(4)=   0.000000  celldm(5)=   0.000000  celldm(6)=   0.000000

     crystal axes: (cart. coord. in units of alat)
               a(1) = (  -0.500000   0.000000   0.500000 )  
               a(2) = (   0.000000   0.500000   0.500000 )  
               a(3) = (  -0.500000   0.500000   0.000000 )  

     reciprocal axes: (cart. coord. in units 2 pi/alat)
               b(1) = ( -1.000000 -1.000000  1.000000 )  
               b(2) = (  1.000000  1.000000  1.000000 )  
               b(3) = ( -1.000000  1.000000 -1.000000 )  


     PseudoPot. # 1 for Si read from file:
     ./Si.pbe-rrkj.UPF
     MD5 check sum: cf7ab5690cd9a85b22c4813f7e365554
     Pseudo is Norm-conserving, Zval =  4.0
     Generated by new atomic code, or converted to UPF format
     Using radial grid of  883 points,  3 beta functions with: 
                l(1) =   0
                l(2) =   0
                l(3) =   1

     atomic species   valence    mass     pseudopotential
        Si             4.00    28.08600     Si( 1.00)

     48 Sym. Ops., with inversion, found (24 have fractional translation)



   Cartesian axes

     site n.     atom                  positions (alat units)
         1           Si  tau(   1) = (   0.0000000   0.0000000   0.0000000  )
         2           Si  tau(   2) = (   0.2500000   0.2500000   0.2500000  )

     number of k points=    28
                       cart. coord. in units 2pi/alat
        k(    1) = (  -0.0833333   0.0833333   0.0833333), wk =   0.0185185
        k(    2) = (  -0.2500000   0.2500000  -0.0833333), wk =   0.0555556
        k(    3) = (  -0.4166667   0.4166667  -0.2500000), wk =   0.0555556
        k(    4) = (   0.4166667  -0.4166667   0.5833333), wk =   0.0555556
        k(    5) = (   0.2500000  -0.2500000   0.4166667), wk =   0.0555556
        k(    6) = (   0.0833333  -0.0833333   0.2500000), wk =   0.0555556
        k(    7) = (  -0.0833333   0.4166667   0.0833333), wk =   0.0555556
        k(    8) = (  -0.2500000   0.5833333  -0.0833333), wk =   0.1111111
        k(    9) = (   0.5833333  -0.2500000   0.7500000), wk =   0.1111111
        k(   10) = (   0.4166667  -0.0833333   0.5833333), wk =   0.1111111
        k(   11) = (   0.2500000   0.0833333   0.4166667), wk =   0.1111111
        k(   12) = (  -0.0833333   0.7500000   0.0833333), wk =   0.0555556
        k(   13) = (   0.7500000  -0.0833333   0.9166667), wk =   0.1111111
        k(   14) = (   0.5833333   0.0833333   0.7500000), wk =   0.1111111
        k(   15) = (   0.4166667   0.2500000   0.5833333), wk =   0.1111111
        k(   16) = (  -0.0833333  -0.9166667   0.0833333), wk =   0.0555556
        k(   17) = (  -0.2500000  -0.7500000  -0.0833333), wk =   0.1111111
        k(   18) = (  -0.0833333  -0.5833333   0.0833333), wk =   0.0555556
        k(   19) = (  -0.2500000   0.2500000   0.2500000), wk =   0.0185185
        k(   20) = (  -0.4166667   0.4166667   0.0833333), wk =   0.0555556
        k(   21) = (   0.4166667  -0.4166667   0.9166667), wk =   0.0555556
        k(   22) = (   0.2500000  -0.2500000   0.7500000), wk =   0.0555556
        k(   23) = (  -0.2500000   0.5833333   0.2500000), wk =   0.0555556
        k(   24) = (   0.5833333  -0.2500000   1.0833333), wk =   0.1111111
        k(   25) = (   0.4166667  -0.0833333   0.9166667), wk =   0.1111111
        k(   26) = (  -0.2500000  -1.0833333   0.2500000), wk =   0.0555556
        k(   27) = (  -0.4166667   0.4166667   0.4166667), wk =   0.0185185
        k(   28) = (   0.4166667  -0.4166667   1.2500000), wk =   0.0555556

     Dense  grid:     3287 G-vectors     FFT dimensions: (  24,  24,  24)

     Estimated max dynamical RAM per process >       3.35 MB

     Initial potential from superposition of free atoms

     starting charge    7.99889, renormalised to    8.00000
     Starting wfcs are    8 randomized atomic wfcs

     total cpu time spent up to now is        0.1 secs

     Self-consistent Calculation

     iteration #  1     ecut=    25.00 Ry     beta= 0.70
     Davidson diagonalization with overlap
     ethr =  1.00E-02,  avg # of iterations =  2.0

     Threshold (ethr) on eigenvalues was too large:
     Diagonalizing with lowered threshold

     Davidson diagonalization with overlap
     ethr =  9.96E-04,  avg # of iterations =  1.5

     total cpu time spent up to now is        0.3 secs

     total energy              =     -15.60602380 Ry
     estimated scf accuracy    <       0.09038500 Ry

     iteration #  2     ecut=    25.00 Ry     beta= 0.70
     Davidson diagonalization with overlap
     ethr =  1.13E-03,  avg # of iterations =  1.0

     total cpu time spent up to now is        0.4 secs

     total energy              =     -15.61082260 Ry
     estimated scf accuracy    <       0.00352174 Ry

     iteration #  3     ecut=    25.00 Ry     beta= 0.70
     Davidson diagonalization with overlap
     ethr =  4.40E-05,  avg # of iterations =  3.1

     total cpu time spent up to now is        0.5 secs

     total energy              =     -15.61226031 Ry
     estimated scf accuracy    <       0.00017772 Ry

     iteration #  4     ecut=    25.00 Ry     beta= 0.70
     Davidson diagonalization with overlap
     ethr =  2.22E-06,  avg # of iterations =  4.0

     total cpu time spent up to now is        0.7 secs

     total energy              =     -15.61235123 Ry
     estimated scf accuracy    <       0.00001234 Ry

     iteration #  5     ecut=    25.00 Ry     beta= 0.70
     Davidson diagonalization with overlap
     ethr =  1.54E-07,  avg # of iterations =  4.1

     total cpu time spent up to now is        0.8 secs

     End of self-consistent calculation

          k =-0.0833 0.0833 0.0833 (   405 PWs)   bands (ev):

    -4.1534   9.2077   9.9819   9.9819

          k =-0.2500 0.2500-0.0833 (   401 PWs)   bands (ev):

    -3.5252   6.7817   8.3339   9.7901

          k =-0.4167 0.4167-0.2500 (   409 PWs)   bands (ev):

    -2.0352   3.2076   7.8639   8.9697

          k = 0.4167-0.4167 0.5833 (   409 PWs)   bands (ev):

    -0.9457   1.5626   8.0398   8.4339

          k = 0.2500-0.2500 0.4167 (   411 PWs)   bands (ev):

    -2.6109   4.3249   8.4396   8.7031

          k = 0.0833-0.0833 0.2500 (   407 PWs)   bands (ev):

    -3.8376   8.0276   9.0681   9.5264

          k =-0.0833 0.4167 0.0833 (   408 PWs)   bands (ev):

    -3.2102   6.8152   8.0984   8.2967

          k =-0.2500 0.5833-0.0833 (   412 PWs)   bands (ev):

    -1.9929   4.5823   6.4051   7.6218

          k = 0.5833-0.2500 0.7500 (   412 PWs)   bands (ev):

    -0.3332   2.0050   5.7673   7.2533

          k = 0.4167-0.0833 0.5833 (   413 PWs)   bands (ev):

    -1.4334   3.5968   5.5340   7.9817

          k = 0.2500 0.0833 0.4167 (   410 PWs)   bands (ev):

    -2.9062   5.6216   7.3306   8.9900

          k =-0.0833 0.7500 0.0833 (   418 PWs)   bands (ev):

    -1.0671   3.8361   6.2247   6.7713

          k = 0.7500-0.0833 0.9167 (   414 PWs)   bands (ev):

     0.5854   2.1242   4.9521   6.1266

          k = 0.5833 0.0833 0.7500 (   410 PWs)   bands (ev):

     0.2211   2.2784   4.3886   6.8823

          k = 0.4167 0.2500 0.5833 (   411 PWs)   bands (ev):

    -1.2252   2.3911   7.0132   8.1442

          k =-0.0833-0.9167 0.0833 (   417 PWs)   bands (ev):

     0.4011   2.0725   5.8562   6.4968

          k =-0.2500-0.7500-0.0833 (   414 PWs)   bands (ev):

    -0.8106   3.4935   5.5205   6.5656

          k =-0.0833-0.5833 0.0833 (   415 PWs)   bands (ev):

    -2.2809   5.4808   7.0384   7.3125

          k =-0.2500 0.2500 0.2500 (   401 PWs)   bands (ev):

    -3.2178   5.4744   9.2090   9.2090

          k =-0.4167 0.4167 0.0833 (   406 PWs)   bands (ev):

    -2.3067   4.5138   6.3603   9.0324

          k = 0.4167-0.4167 0.9167 (   410 PWs)   bands (ev):

    -0.6503   2.7947   4.8050   7.9277

          k = 0.2500-0.2500 0.7500 (   412 PWs)   bands (ev):

    -0.6068   2.7072   5.5358   7.2556

          k =-0.2500 0.5833 0.2500 (   415 PWs)   bands (ev):

    -1.7240   3.4080   7.2102   7.7507

          k = 0.5833-0.2500 1.0833 (   412 PWs)   bands (ev):

    -0.3375   2.8483   4.9084   6.5095

          k = 0.4167-0.0833 0.9167 (   408 PWs)   bands (ev):

     0.8281   2.1097   4.4753   5.5422

          k =-0.2500-1.0833 0.2500 (   412 PWs)   bands (ev):

     0.5588   2.0831   4.3080   6.9997

          k =-0.4167 0.4167 0.4167 (   413 PWs)   bands (ev):

    -1.5318   2.1488   8.7658   8.7658

          k = 0.4167-0.4167 1.2500 (   408 PWs)   bands (ev):

    -0.6421   1.8069   6.4260   8.1142

     highest occupied level (ev):     9.9819

!    total energy              =     -15.61235740 Ry
     estimated scf accuracy    <       0.00000030 Ry

     The total energy is the sum of the following terms:
     one-electron contribution =       7.48558328 Ry
     hartree contribution      =       0.82925710 Ry
     xc contribution           =      -5.19050890 Ry
     ewald contribution        =     -18.73668889 Ry

     convergence has been achieved in   5 iterations

     Writing output data file ./Si_exc1.save/

     init_run     :      0.12s CPU      0.13s WALL (       1 calls)
     electrons    :      0.62s CPU      0.69s WALL (       1 calls)

     Called by init_run:
     wfcinit      :      0.06s CPU      0.06s WALL (       1 calls)
     potinit      :      0.01s CPU      0.01s WALL (       1 calls)
     hinit0       :      0.05s CPU      0.05s WALL (       1 calls)

     Called by electrons:
     c_bands      :      0.50s CPU      0.51s WALL (       6 calls)
     sum_band     :      0.09s CPU      0.10s WALL (       6 calls)
     v_of_rho     :      0.04s CPU      0.04s WALL (       6 calls)
     mix_rho      :      0.00s CPU      0.00s WALL (       6 calls)

     Called by c_bands:
     init_us_2    :      0.03s CPU      0.03s WALL (     364 calls)
     cegterg      :      0.48s CPU      0.49s WALL (     168 calls)

     Called by *egterg:
     cdiaghg      :      0.01s CPU      0.01s WALL (     580 calls)
     h_psi        :      0.49s CPU      0.50s WALL (     636 calls)
     g_psi        :      0.00s CPU      0.00s WALL (     440 calls)

     Called by h_psi:
     h_psi:calbec :      0.01s CPU      0.01s WALL (     636 calls)
     vloc_psi     :      0.47s CPU      0.48s WALL (     636 calls)
     add_vuspsi   :      0.01s CPU      0.01s WALL (     636 calls)

     General routines
     calbec       :      0.01s CPU      0.01s WALL (     636 calls)
     fft          :      0.02s CPU      0.02s WALL (      60 calls)
     ffts         :      0.00s CPU      0.00s WALL (       6 calls)
     fftw         :      0.46s CPU      0.48s WALL (    5042 calls)

     Parallel routines

     PWSCF        :      0.79s CPU      0.87s WALL


   This run was terminated on:  18:31: 7  19Sep2022            

=------------------------------------------------------------------------------=
   JOB DONE.
=------------------------------------------------------------------------------=
