
     Program PWSCF v.6.7MaX starts on 19Sep2022 at 18:31: 8 

     This program is part of the open-source Quantum ESPRESSO suite
     for quantum simulation of materials; please cite
         "P. Giannozzi et al., J. Phys.:Condens. Matter 21 395502 (2009);
         "P. Giannozzi et al., J. Phys.:Condens. Matter 29 465901 (2017);
          URL http://www.quantum-espresso.org", 
     in publications or presentations arising from this work. More details at
     http://www.quantum-espresso.org/quote

     Parallel version (MPI), running on     1 processors

     MPI processes distributed on     1 nodes
     Waiting for input...
     Reading input from standard input

     Current dimensions of program PWSCF are:
     Max number of different atomic species (ntypx) = 10
     Max number of k-points (npk) =  40000
     Max angular momentum in pseudopotentials (lmaxx) =  3

     Subspace diagonalization in iterative solution of the eigenvalue problem:
     a serial algorithm will be used


     G-vector sticks info
     --------------------
     sticks:   dense  smooth     PW     G-vecs:    dense   smooth      PW
     Sum         313     313    109                 3719     3719     749



     bravais-lattice index     =            2
     lattice parameter (alat)  =       9.6000  a.u.
     unit-cell volume          =     221.1840 (a.u.)^3
     number of atoms/cell      =            2
     number of atomic types    =            1
     number of electrons       =         8.00
     number of Kohn-Sham states=            4
     kinetic-energy cutoff     =      25.0000  Ry
     charge density cutoff     =     100.0000  Ry
     scf convergence threshold =      1.0E-06
     mixing beta               =       0.7000
     number of iterations used =            8  plain     mixing
     Exchange-correlation=  SLA  PW   PBE  PBE
                           (   1   4   3   4   0   0   0)

     celldm(1)=   9.600000  celldm(2)=   0.000000  celldm(3)=   0.000000
     celldm(4)=   0.000000  celldm(5)=   0.000000  celldm(6)=   0.000000

     crystal axes: (cart. coord. in units of alat)
               a(1) = (  -0.500000   0.000000   0.500000 )  
               a(2) = (   0.000000   0.500000   0.500000 )  
               a(3) = (  -0.500000   0.500000   0.000000 )  

     reciprocal axes: (cart. coord. in units 2 pi/alat)
               b(1) = ( -1.000000 -1.000000  1.000000 )  
               b(2) = (  1.000000  1.000000  1.000000 )  
               b(3) = ( -1.000000  1.000000 -1.000000 )  


     PseudoPot. # 1 for Si read from file:
     ./Si.pbe-rrkj.UPF
     MD5 check sum: cf7ab5690cd9a85b22c4813f7e365554
     Pseudo is Norm-conserving, Zval =  4.0
     Generated by new atomic code, or converted to UPF format
     Using radial grid of  883 points,  3 beta functions with: 
                l(1) =   0
                l(2) =   0
                l(3) =   1

     atomic species   valence    mass     pseudopotential
        Si             4.00    28.08600     Si( 1.00)

     48 Sym. Ops., with inversion, found (24 have fractional translation)



   Cartesian axes

     site n.     atom                  positions (alat units)
         1           Si  tau(   1) = (   0.0000000   0.0000000   0.0000000  )
         2           Si  tau(   2) = (   0.2500000   0.2500000   0.2500000  )

     number of k points=    28
                       cart. coord. in units 2pi/alat
        k(    1) = (  -0.0833333   0.0833333   0.0833333), wk =   0.0185185
        k(    2) = (  -0.2500000   0.2500000  -0.0833333), wk =   0.0555556
        k(    3) = (  -0.4166667   0.4166667  -0.2500000), wk =   0.0555556
        k(    4) = (   0.4166667  -0.4166667   0.5833333), wk =   0.0555556
        k(    5) = (   0.2500000  -0.2500000   0.4166667), wk =   0.0555556
        k(    6) = (   0.0833333  -0.0833333   0.2500000), wk =   0.0555556
        k(    7) = (  -0.0833333   0.4166667   0.0833333), wk =   0.0555556
        k(    8) = (  -0.2500000   0.5833333  -0.0833333), wk =   0.1111111
        k(    9) = (   0.5833333  -0.2500000   0.7500000), wk =   0.1111111
        k(   10) = (   0.4166667  -0.0833333   0.5833333), wk =   0.1111111
        k(   11) = (   0.2500000   0.0833333   0.4166667), wk =   0.1111111
        k(   12) = (  -0.0833333   0.7500000   0.0833333), wk =   0.0555556
        k(   13) = (   0.7500000  -0.0833333   0.9166667), wk =   0.1111111
        k(   14) = (   0.5833333   0.0833333   0.7500000), wk =   0.1111111
        k(   15) = (   0.4166667   0.2500000   0.5833333), wk =   0.1111111
        k(   16) = (  -0.0833333  -0.9166667   0.0833333), wk =   0.0555556
        k(   17) = (  -0.2500000  -0.7500000  -0.0833333), wk =   0.1111111
        k(   18) = (  -0.0833333  -0.5833333   0.0833333), wk =   0.0555556
        k(   19) = (  -0.2500000   0.2500000   0.2500000), wk =   0.0185185
        k(   20) = (  -0.4166667   0.4166667   0.0833333), wk =   0.0555556
        k(   21) = (   0.4166667  -0.4166667   0.9166667), wk =   0.0555556
        k(   22) = (   0.2500000  -0.2500000   0.7500000), wk =   0.0555556
        k(   23) = (  -0.2500000   0.5833333   0.2500000), wk =   0.0555556
        k(   24) = (   0.5833333  -0.2500000   1.0833333), wk =   0.1111111
        k(   25) = (   0.4166667  -0.0833333   0.9166667), wk =   0.1111111
        k(   26) = (  -0.2500000  -1.0833333   0.2500000), wk =   0.0555556
        k(   27) = (  -0.4166667   0.4166667   0.4166667), wk =   0.0185185
        k(   28) = (   0.4166667  -0.4166667   1.2500000), wk =   0.0555556

     Dense  grid:     3719 G-vectors     FFT dimensions: (  24,  24,  24)

     Estimated max dynamical RAM per process >       3.65 MB

     Initial potential from superposition of free atoms

     starting charge    7.99889, renormalised to    8.00000
     Starting wfcs are    8 randomized atomic wfcs

     total cpu time spent up to now is        0.1 secs

     Self-consistent Calculation

     iteration #  1     ecut=    25.00 Ry     beta= 0.70
     Davidson diagonalization with overlap
     ethr =  1.00E-02,  avg # of iterations =  2.0

     Threshold (ethr) on eigenvalues was too large:
     Diagonalizing with lowered threshold

     Davidson diagonalization with overlap
     ethr =  8.24E-04,  avg # of iterations =  1.8

     total cpu time spent up to now is        0.3 secs

     total energy              =     -15.68864838 Ry
     estimated scf accuracy    <       0.07612144 Ry

     iteration #  2     ecut=    25.00 Ry     beta= 0.70
     Davidson diagonalization with overlap
     ethr =  9.52E-04,  avg # of iterations =  1.0

     total cpu time spent up to now is        0.4 secs

     total energy              =     -15.69217743 Ry
     estimated scf accuracy    <       0.00337547 Ry

     iteration #  3     ecut=    25.00 Ry     beta= 0.70
     Davidson diagonalization with overlap
     ethr =  4.22E-05,  avg # of iterations =  2.8

     total cpu time spent up to now is        0.5 secs

     total energy              =     -15.69325119 Ry
     estimated scf accuracy    <       0.00015043 Ry

     iteration #  4     ecut=    25.00 Ry     beta= 0.70
     Davidson diagonalization with overlap
     ethr =  1.88E-06,  avg # of iterations =  3.9

     total cpu time spent up to now is        0.7 secs

     total energy              =     -15.69332493 Ry
     estimated scf accuracy    <       0.00001205 Ry

     iteration #  5     ecut=    25.00 Ry     beta= 0.70
     Davidson diagonalization with overlap
     ethr =  1.51E-07,  avg # of iterations =  3.8

     total cpu time spent up to now is        0.8 secs

     End of self-consistent calculation

          k =-0.0833 0.0833 0.0833 (   483 PWs)   bands (ev):

    -4.7652   7.6077   8.3330   8.3330

          k =-0.2500 0.2500-0.0833 (   477 PWs)   bands (ev):

    -4.1986   5.3428   6.8546   8.1269

          k =-0.4167 0.4167-0.2500 (   467 PWs)   bands (ev):

    -2.8707   2.0971   6.3863   7.3796

          k = 0.4167-0.4167 0.5833 (   466 PWs)   bands (ev):

    -1.9497   0.6641   6.5140   6.9101

          k = 0.2500-0.2500 0.4167 (   470 PWs)   bands (ev):

    -3.3793   3.1046   6.9424   7.1086

          k = 0.0833-0.0833 0.2500 (   476 PWs)   bands (ev):

    -4.4798   6.4932   7.5308   7.8707

          k =-0.0833 0.4167 0.0833 (   478 PWs)   bands (ev):

    -3.9136   5.2998   6.6583   6.7498

          k =-0.2500 0.5833-0.0833 (   465 PWs)   bands (ev):

    -2.8213   3.2221   5.1025   6.2184

          k = 0.5833-0.2500 0.7500 (   465 PWs)   bands (ev):

    -1.3926   0.9921   4.4758   5.9129

          k = 0.4167-0.0833 0.5833 (   468 PWs)   bands (ev):

    -2.3297   2.3581   4.3246   6.5368

          k = 0.2500 0.0833 0.4167 (   472 PWs)   bands (ev):

    -3.6415   4.2445   5.9406   7.3980

          k =-0.0833 0.7500 0.0833 (   463 PWs)   bands (ev):

    -1.9829   2.4266   4.9956   5.4509

          k = 0.7500-0.0833 0.9167 (   465 PWs)   bands (ev):

    -0.5200   0.8657   3.9056   4.9100

          k = 0.5833 0.0833 0.7500 (   463 PWs)   bands (ev):

    -0.8942   1.1158   3.3600   5.5791

          k = 0.4167 0.2500 0.5833 (   463 PWs)   bands (ev):

    -2.1625   1.3577   5.5895   6.6707

          k =-0.0833-0.9167 0.0833 (   462 PWs)   bands (ev):

    -0.6641   0.8364   4.6670   5.2000

          k =-0.2500-0.7500-0.0833 (   464 PWs)   bands (ev):

    -1.7628   2.1356   4.3621   5.3119

          k =-0.0833-0.5833 0.0833 (   465 PWs)   bands (ev):

    -3.0757   3.9640   5.6898   5.9445

          k =-0.2500 0.2500 0.2500 (   483 PWs)   bands (ev):

    -3.9229   4.1645   7.6217   7.6217

          k =-0.4167 0.4167 0.0833 (   469 PWs)   bands (ev):

    -3.1062   3.2272   5.0650   7.4450

          k = 0.4167-0.4167 0.9167 (   463 PWs)   bands (ev):

    -1.6479   1.6276   3.6896   6.4746

          k = 0.2500-0.2500 0.7500 (   464 PWs)   bands (ev):

    -1.5999   1.5414   4.3171   5.8814

          k =-0.2500 0.5833 0.2500 (   462 PWs)   bands (ev):

    -2.5884   2.2406   5.7545   6.3269

          k = 0.5833-0.2500 1.0833 (   465 PWs)   bands (ev):

    -1.3619   1.6075   3.7911   5.2808

          k = 0.4167-0.0833 0.9167 (   467 PWs)   bands (ev):

    -0.3401   0.8557   3.4881   4.4387

          k =-0.2500-1.0833 0.2500 (   469 PWs)   bands (ev):

    -0.5848   0.8859   3.3374   5.6504

          k =-0.4167 0.4167 0.4167 (   470 PWs)   bands (ev):

    -2.4404   1.1658   7.1956   7.1956

          k = 0.4167-0.4167 1.2500 (   462 PWs)   bands (ev):

    -1.6740   0.8562   5.0683   6.6357

     highest occupied level (ev):     8.3330

!    total energy              =     -15.69333059 Ry
     estimated scf accuracy    <       0.00000031 Ry

     The total energy is the sum of the following terms:
     one-electron contribution =       6.36976457 Ry
     hartree contribution      =       0.92918262 Ry
     xc contribution           =      -5.03628429 Ry
     ewald contribution        =     -17.95599350 Ry

     convergence has been achieved in   5 iterations

     Writing output data file ./Si_exc1.save/

     init_run     :      0.12s CPU      0.13s WALL (       1 calls)
     electrons    :      0.65s CPU      0.69s WALL (       1 calls)

     Called by init_run:
     wfcinit      :      0.06s CPU      0.07s WALL (       1 calls)
     potinit      :      0.01s CPU      0.01s WALL (       1 calls)
     hinit0       :      0.05s CPU      0.05s WALL (       1 calls)

     Called by electrons:
     c_bands      :      0.51s CPU      0.52s WALL (       6 calls)
     sum_band     :      0.10s CPU      0.10s WALL (       6 calls)
     v_of_rho     :      0.04s CPU      0.04s WALL (       6 calls)
     mix_rho      :      0.00s CPU      0.00s WALL (       6 calls)

     Called by c_bands:
     init_us_2    :      0.03s CPU      0.03s WALL (     364 calls)
     cegterg      :      0.49s CPU      0.50s WALL (     168 calls)

     Called by *egterg:
     cdiaghg      :      0.01s CPU      0.01s WALL (     564 calls)
     h_psi        :      0.49s CPU      0.50s WALL (     620 calls)
     g_psi        :      0.00s CPU      0.00s WALL (     424 calls)

     Called by h_psi:
     h_psi:calbec :      0.01s CPU      0.01s WALL (     620 calls)
     vloc_psi     :      0.47s CPU      0.48s WALL (     620 calls)
     add_vuspsi   :      0.01s CPU      0.01s WALL (     620 calls)

     General routines
     calbec       :      0.01s CPU      0.01s WALL (     620 calls)
     fft          :      0.02s CPU      0.02s WALL (      60 calls)
     ffts         :      0.00s CPU      0.00s WALL (       6 calls)
     fftw         :      0.47s CPU      0.47s WALL (    5026 calls)

     Parallel routines

     PWSCF        :      0.81s CPU      0.86s WALL


   This run was terminated on:  18:31: 9  19Sep2022            

=------------------------------------------------------------------------------=
   JOB DONE.
=------------------------------------------------------------------------------=
