
     Program PWSCF v.6.7MaX starts on 19Sep2022 at 18:31: 7 

     This program is part of the open-source Quantum ESPRESSO suite
     for quantum simulation of materials; please cite
         "P. Giannozzi et al., J. Phys.:Condens. Matter 21 395502 (2009);
         "P. Giannozzi et al., J. Phys.:Condens. Matter 29 465901 (2017);
          URL http://www.quantum-espresso.org", 
     in publications or presentations arising from this work. More details at
     http://www.quantum-espresso.org/quote

     Parallel version (MPI), running on     1 processors

     MPI processes distributed on     1 nodes
     Waiting for input...
     Reading input from standard input

     Current dimensions of program PWSCF are:
     Max number of different atomic species (ntypx) = 10
     Max number of k-points (npk) =  40000
     Max angular momentum in pseudopotentials (lmaxx) =  3

     Subspace diagonalization in iterative solution of the eigenvalue problem:
     a serial algorithm will be used


     G-vector sticks info
     --------------------
     sticks:   dense  smooth     PW     G-vecs:    dense   smooth      PW
     Sum         301     301    109                 3479     3479     725



     bravais-lattice index     =            2
     lattice parameter (alat)  =       9.4000  a.u.
     unit-cell volume          =     207.6460 (a.u.)^3
     number of atoms/cell      =            2
     number of atomic types    =            1
     number of electrons       =         8.00
     number of Kohn-Sham states=            4
     kinetic-energy cutoff     =      25.0000  Ry
     charge density cutoff     =     100.0000  Ry
     scf convergence threshold =      1.0E-06
     mixing beta               =       0.7000
     number of iterations used =            8  plain     mixing
     Exchange-correlation=  SLA  PW   PBE  PBE
                           (   1   4   3   4   0   0   0)

     celldm(1)=   9.400000  celldm(2)=   0.000000  celldm(3)=   0.000000
     celldm(4)=   0.000000  celldm(5)=   0.000000  celldm(6)=   0.000000

     crystal axes: (cart. coord. in units of alat)
               a(1) = (  -0.500000   0.000000   0.500000 )  
               a(2) = (   0.000000   0.500000   0.500000 )  
               a(3) = (  -0.500000   0.500000   0.000000 )  

     reciprocal axes: (cart. coord. in units 2 pi/alat)
               b(1) = ( -1.000000 -1.000000  1.000000 )  
               b(2) = (  1.000000  1.000000  1.000000 )  
               b(3) = ( -1.000000  1.000000 -1.000000 )  


     PseudoPot. # 1 for Si read from file:
     ./Si.pbe-rrkj.UPF
     MD5 check sum: cf7ab5690cd9a85b22c4813f7e365554
     Pseudo is Norm-conserving, Zval =  4.0
     Generated by new atomic code, or converted to UPF format
     Using radial grid of  883 points,  3 beta functions with: 
                l(1) =   0
                l(2) =   0
                l(3) =   1

     atomic species   valence    mass     pseudopotential
        Si             4.00    28.08600     Si( 1.00)

     48 Sym. Ops., with inversion, found (24 have fractional translation)



   Cartesian axes

     site n.     atom                  positions (alat units)
         1           Si  tau(   1) = (   0.0000000   0.0000000   0.0000000  )
         2           Si  tau(   2) = (   0.2500000   0.2500000   0.2500000  )

     number of k points=    28
                       cart. coord. in units 2pi/alat
        k(    1) = (  -0.0833333   0.0833333   0.0833333), wk =   0.0185185
        k(    2) = (  -0.2500000   0.2500000  -0.0833333), wk =   0.0555556
        k(    3) = (  -0.4166667   0.4166667  -0.2500000), wk =   0.0555556
        k(    4) = (   0.4166667  -0.4166667   0.5833333), wk =   0.0555556
        k(    5) = (   0.2500000  -0.2500000   0.4166667), wk =   0.0555556
        k(    6) = (   0.0833333  -0.0833333   0.2500000), wk =   0.0555556
        k(    7) = (  -0.0833333   0.4166667   0.0833333), wk =   0.0555556
        k(    8) = (  -0.2500000   0.5833333  -0.0833333), wk =   0.1111111
        k(    9) = (   0.5833333  -0.2500000   0.7500000), wk =   0.1111111
        k(   10) = (   0.4166667  -0.0833333   0.5833333), wk =   0.1111111
        k(   11) = (   0.2500000   0.0833333   0.4166667), wk =   0.1111111
        k(   12) = (  -0.0833333   0.7500000   0.0833333), wk =   0.0555556
        k(   13) = (   0.7500000  -0.0833333   0.9166667), wk =   0.1111111
        k(   14) = (   0.5833333   0.0833333   0.7500000), wk =   0.1111111
        k(   15) = (   0.4166667   0.2500000   0.5833333), wk =   0.1111111
        k(   16) = (  -0.0833333  -0.9166667   0.0833333), wk =   0.0555556
        k(   17) = (  -0.2500000  -0.7500000  -0.0833333), wk =   0.1111111
        k(   18) = (  -0.0833333  -0.5833333   0.0833333), wk =   0.0555556
        k(   19) = (  -0.2500000   0.2500000   0.2500000), wk =   0.0185185
        k(   20) = (  -0.4166667   0.4166667   0.0833333), wk =   0.0555556
        k(   21) = (   0.4166667  -0.4166667   0.9166667), wk =   0.0555556
        k(   22) = (   0.2500000  -0.2500000   0.7500000), wk =   0.0555556
        k(   23) = (  -0.2500000   0.5833333   0.2500000), wk =   0.0555556
        k(   24) = (   0.5833333  -0.2500000   1.0833333), wk =   0.1111111
        k(   25) = (   0.4166667  -0.0833333   0.9166667), wk =   0.1111111
        k(   26) = (  -0.2500000  -1.0833333   0.2500000), wk =   0.0555556
        k(   27) = (  -0.4166667   0.4166667   0.4166667), wk =   0.0185185
        k(   28) = (   0.4166667  -0.4166667   1.2500000), wk =   0.0555556

     Dense  grid:     3479 G-vectors     FFT dimensions: (  24,  24,  24)

     Estimated max dynamical RAM per process >       3.49 MB

     Initial potential from superposition of free atoms

     starting charge    7.99889, renormalised to    8.00000
     Starting wfcs are    8 randomized atomic wfcs

     total cpu time spent up to now is        0.2 secs

     Self-consistent Calculation

     iteration #  1     ecut=    25.00 Ry     beta= 0.70
     Davidson diagonalization with overlap
     ethr =  1.00E-02,  avg # of iterations =  2.0

     Threshold (ethr) on eigenvalues was too large:
     Diagonalizing with lowered threshold

     Davidson diagonalization with overlap
     ethr =  9.08E-04,  avg # of iterations =  1.6

     total cpu time spent up to now is        0.3 secs

     total energy              =     -15.65339500 Ry
     estimated scf accuracy    <       0.08324582 Ry

     iteration #  2     ecut=    25.00 Ry     beta= 0.70
     Davidson diagonalization with overlap
     ethr =  1.04E-03,  avg # of iterations =  1.0

     total cpu time spent up to now is        0.4 secs

     total energy              =     -15.65756613 Ry
     estimated scf accuracy    <       0.00345504 Ry

     iteration #  3     ecut=    25.00 Ry     beta= 0.70
     Davidson diagonalization with overlap
     ethr =  4.32E-05,  avg # of iterations =  2.9

     total cpu time spent up to now is        0.5 secs

     total energy              =     -15.65882496 Ry
     estimated scf accuracy    <       0.00016886 Ry

     iteration #  4     ecut=    25.00 Ry     beta= 0.70
     Davidson diagonalization with overlap
     ethr =  2.11E-06,  avg # of iterations =  4.0

     total cpu time spent up to now is        0.7 secs

     total energy              =     -15.65890682 Ry
     estimated scf accuracy    <       0.00001321 Ry

     iteration #  5     ecut=    25.00 Ry     beta= 0.70
     Davidson diagonalization with overlap
     ethr =  1.65E-07,  avg # of iterations =  3.8

     total cpu time spent up to now is        0.8 secs

     End of self-consistent calculation

          k =-0.0833 0.0833 0.0833 (   429 PWs)   bands (ev):

    -4.4723   8.3795   9.1263   9.1263

          k =-0.2500 0.2500-0.0833 (   443 PWs)   bands (ev):

    -3.8759   6.0383   7.5654   8.9258

          k =-0.4167 0.4167-0.2500 (   441 PWs)   bands (ev):

    -2.4693   2.6326   7.0958   8.1426

          k = 0.4167-0.4167 0.5833 (   441 PWs)   bands (ev):

    -1.4683   1.0982   7.2461   7.6414

          k = 0.2500-0.2500 0.4167 (   439 PWs)   bands (ev):

    -3.0104   3.6935   7.6616   7.8738

          k = 0.0833-0.0833 0.2500 (   444 PWs)   bands (ev):

    -4.1722   7.2351   8.2702   8.6661

          k =-0.0833 0.4167 0.0833 (   438 PWs)   bands (ev):

    -3.5763   6.0344   7.3503   7.4898

          k =-0.2500 0.5833-0.0833 (   441 PWs)   bands (ev):

    -2.4233   3.8804   5.7255   6.8925

          k = 0.5833-0.2500 0.7500 (   436 PWs)   bands (ev):

    -0.8842   1.4835   5.0928   6.5574

          k = 0.4167-0.0833 0.5833 (   432 PWs)   bands (ev):

    -1.8988   2.9578   4.9024   7.2310

          k = 0.2500 0.0833 0.4167 (   443 PWs)   bands (ev):

    -3.2887   4.9107   6.6074   8.1620

          k =-0.0833 0.7500 0.0833 (   439 PWs)   bands (ev):

    -1.5425   3.1055   5.5859   6.0843

          k = 0.7500-0.0833 0.9167 (   439 PWs)   bands (ev):

     0.0120   1.4711   4.4084   5.4941

          k = 0.5833 0.0833 0.7500 (   437 PWs)   bands (ev):

    -0.3589   1.6793   3.8508   6.2052

          k = 0.4167 0.2500 0.5833 (   437 PWs)   bands (ev):

    -1.7121   1.8566   6.2721   7.3785

          k =-0.0833-0.9167 0.0833 (   446 PWs)   bands (ev):

    -0.1512   1.4318   5.2377   5.8218

          k =-0.2500-0.7500-0.0833 (   436 PWs)   bands (ev):

    -1.3048   2.7901   4.9169   5.9147

          k =-0.0833-0.5833 0.0833 (   439 PWs)   bands (ev):

    -2.6940   4.6965   6.3360   6.6012

          k =-0.2500 0.2500 0.2500 (   438 PWs)   bands (ev):

    -3.5847   4.7967   8.3843   8.3843

          k =-0.4167 0.4167 0.0833 (   437 PWs)   bands (ev):

    -2.7222   3.8496   5.6853   8.2071

          k = 0.4167-0.4167 0.9167 (   435 PWs)   bands (ev):

    -1.1684   2.1931   4.2217   7.1722

          k = 0.2500-0.2500 0.7500 (   437 PWs)   bands (ev):

    -1.1224   2.1057   4.8994   6.5409

          k =-0.2500 0.5833 0.2500 (   439 PWs)   bands (ev):

    -2.1730   2.8047   6.4519   7.0105

          k = 0.5833-0.2500 1.0833 (   438 PWs)   bands (ev):

    -0.8693   2.2078   4.3238   5.8720

          k = 0.4167-0.0833 0.9167 (   436 PWs)   bands (ev):

     0.2209   1.4594   3.9617   4.9696

          k =-0.2500-1.0833 0.2500 (   435 PWs)   bands (ev):

    -0.0357   1.4636   3.8030   6.2978

          k =-0.4167 0.4167 0.4167 (   431 PWs)   bands (ev):

    -2.0037   1.6394   7.9489   7.9489

          k = 0.4167-0.4167 1.2500 (   440 PWs)   bands (ev):

    -1.1791   1.3165   5.7190   7.3455

     highest occupied level (ev):     9.1263

!    total energy              =     -15.65891236 Ry
     estimated scf accuracy    <       0.00000027 Ry

     The total energy is the sum of the following terms:
     one-electron contribution =       6.91130111 Ry
     hartree contribution      =       0.87930816 Ry
     xc contribution           =      -5.11148571 Ry
     ewald contribution        =     -18.33803592 Ry

     convergence has been achieved in   5 iterations

     Writing output data file ./Si_exc1.save/

     init_run     :      0.12s CPU      0.13s WALL (       1 calls)
     electrons    :      0.65s CPU      0.70s WALL (       1 calls)

     Called by init_run:
     wfcinit      :      0.06s CPU      0.06s WALL (       1 calls)
     potinit      :      0.01s CPU      0.01s WALL (       1 calls)
     hinit0       :      0.05s CPU      0.05s WALL (       1 calls)

     Called by electrons:
     c_bands      :      0.52s CPU      0.52s WALL (       6 calls)
     sum_band     :      0.10s CPU      0.10s WALL (       6 calls)
     v_of_rho     :      0.04s CPU      0.04s WALL (       6 calls)
     mix_rho      :      0.00s CPU      0.00s WALL (       6 calls)

     Called by c_bands:
     init_us_2    :      0.03s CPU      0.03s WALL (     364 calls)
     cegterg      :      0.50s CPU      0.50s WALL (     168 calls)

     Called by *egterg:
     cdiaghg      :      0.01s CPU      0.01s WALL (     567 calls)
     h_psi        :      0.50s CPU      0.51s WALL (     623 calls)
     g_psi        :      0.00s CPU      0.00s WALL (     427 calls)

     Called by h_psi:
     h_psi:calbec :      0.01s CPU      0.01s WALL (     623 calls)
     vloc_psi     :      0.48s CPU      0.49s WALL (     623 calls)
     add_vuspsi   :      0.01s CPU      0.01s WALL (     623 calls)

     General routines
     calbec       :      0.01s CPU      0.01s WALL (     623 calls)
     fft          :      0.02s CPU      0.02s WALL (      60 calls)
     ffts         :      0.00s CPU      0.00s WALL (       6 calls)
     fftw         :      0.48s CPU      0.48s WALL (    5040 calls)

     Parallel routines

     PWSCF        :      0.82s CPU      0.88s WALL


   This run was terminated on:  18:31: 8  19Sep2022            

=------------------------------------------------------------------------------=
   JOB DONE.
=------------------------------------------------------------------------------=
