
     Program PWSCF v.6.7MaX starts on 19Sep2022 at 18:31: 9 

     This program is part of the open-source Quantum ESPRESSO suite
     for quantum simulation of materials; please cite
         "P. Giannozzi et al., J. Phys.:Condens. Matter 21 395502 (2009);
         "P. Giannozzi et al., J. Phys.:Condens. Matter 29 465901 (2017);
          URL http://www.quantum-espresso.org", 
     in publications or presentations arising from this work. More details at
     http://www.quantum-espresso.org/quote

     Parallel version (MPI), running on     1 processors

     MPI processes distributed on     1 nodes
     Waiting for input...
     Reading input from standard input

     Current dimensions of program PWSCF are:
     Max number of different atomic species (ntypx) = 10
     Max number of k-points (npk) =  40000
     Max angular momentum in pseudopotentials (lmaxx) =  3

     Subspace diagonalization in iterative solution of the eigenvalue problem:
     a serial algorithm will be used


     G-vector sticks info
     --------------------
     sticks:   dense  smooth     PW     G-vecs:    dense   smooth      PW
     Sum         337     337    121                 3943     3943     869



     bravais-lattice index     =            2
     lattice parameter (alat)  =       9.8000  a.u.
     unit-cell volume          =     235.2980 (a.u.)^3
     number of atoms/cell      =            2
     number of atomic types    =            1
     number of electrons       =         8.00
     number of Kohn-Sham states=            4
     kinetic-energy cutoff     =      25.0000  Ry
     charge density cutoff     =     100.0000  Ry
     scf convergence threshold =      1.0E-06
     mixing beta               =       0.7000
     number of iterations used =            8  plain     mixing
     Exchange-correlation=  SLA  PW   PBE  PBE
                           (   1   4   3   4   0   0   0)

     celldm(1)=   9.800000  celldm(2)=   0.000000  celldm(3)=   0.000000
     celldm(4)=   0.000000  celldm(5)=   0.000000  celldm(6)=   0.000000

     crystal axes: (cart. coord. in units of alat)
               a(1) = (  -0.500000   0.000000   0.500000 )  
               a(2) = (   0.000000   0.500000   0.500000 )  
               a(3) = (  -0.500000   0.500000   0.000000 )  

     reciprocal axes: (cart. coord. in units 2 pi/alat)
               b(1) = ( -1.000000 -1.000000  1.000000 )  
               b(2) = (  1.000000  1.000000  1.000000 )  
               b(3) = ( -1.000000  1.000000 -1.000000 )  


     PseudoPot. # 1 for Si read from file:
     ./Si.pbe-rrkj.UPF
     MD5 check sum: cf7ab5690cd9a85b22c4813f7e365554
     Pseudo is Norm-conserving, Zval =  4.0
     Generated by new atomic code, or converted to UPF format
     Using radial grid of  883 points,  3 beta functions with: 
                l(1) =   0
                l(2) =   0
                l(3) =   1

     atomic species   valence    mass     pseudopotential
        Si             4.00    28.08600     Si( 1.00)

     48 Sym. Ops., with inversion, found (24 have fractional translation)



   Cartesian axes

     site n.     atom                  positions (alat units)
         1           Si  tau(   1) = (   0.0000000   0.0000000   0.0000000  )
         2           Si  tau(   2) = (   0.2500000   0.2500000   0.2500000  )

     number of k points=    28
                       cart. coord. in units 2pi/alat
        k(    1) = (  -0.0833333   0.0833333   0.0833333), wk =   0.0185185
        k(    2) = (  -0.2500000   0.2500000  -0.0833333), wk =   0.0555556
        k(    3) = (  -0.4166667   0.4166667  -0.2500000), wk =   0.0555556
        k(    4) = (   0.4166667  -0.4166667   0.5833333), wk =   0.0555556
        k(    5) = (   0.2500000  -0.2500000   0.4166667), wk =   0.0555556
        k(    6) = (   0.0833333  -0.0833333   0.2500000), wk =   0.0555556
        k(    7) = (  -0.0833333   0.4166667   0.0833333), wk =   0.0555556
        k(    8) = (  -0.2500000   0.5833333  -0.0833333), wk =   0.1111111
        k(    9) = (   0.5833333  -0.2500000   0.7500000), wk =   0.1111111
        k(   10) = (   0.4166667  -0.0833333   0.5833333), wk =   0.1111111
        k(   11) = (   0.2500000   0.0833333   0.4166667), wk =   0.1111111
        k(   12) = (  -0.0833333   0.7500000   0.0833333), wk =   0.0555556
        k(   13) = (   0.7500000  -0.0833333   0.9166667), wk =   0.1111111
        k(   14) = (   0.5833333   0.0833333   0.7500000), wk =   0.1111111
        k(   15) = (   0.4166667   0.2500000   0.5833333), wk =   0.1111111
        k(   16) = (  -0.0833333  -0.9166667   0.0833333), wk =   0.0555556
        k(   17) = (  -0.2500000  -0.7500000  -0.0833333), wk =   0.1111111
        k(   18) = (  -0.0833333  -0.5833333   0.0833333), wk =   0.0555556
        k(   19) = (  -0.2500000   0.2500000   0.2500000), wk =   0.0185185
        k(   20) = (  -0.4166667   0.4166667   0.0833333), wk =   0.0555556
        k(   21) = (   0.4166667  -0.4166667   0.9166667), wk =   0.0555556
        k(   22) = (   0.2500000  -0.2500000   0.7500000), wk =   0.0555556
        k(   23) = (  -0.2500000   0.5833333   0.2500000), wk =   0.0555556
        k(   24) = (   0.5833333  -0.2500000   1.0833333), wk =   0.1111111
        k(   25) = (   0.4166667  -0.0833333   0.9166667), wk =   0.1111111
        k(   26) = (  -0.2500000  -1.0833333   0.2500000), wk =   0.0555556
        k(   27) = (  -0.4166667   0.4166667   0.4166667), wk =   0.0185185
        k(   28) = (   0.4166667  -0.4166667   1.2500000), wk =   0.0555556

     Dense  grid:     3943 G-vectors     FFT dimensions: (  24,  24,  24)

     Estimated max dynamical RAM per process >       3.81 MB

     Initial potential from superposition of free atoms

     starting charge    7.99889, renormalised to    8.00000
     Starting wfcs are    8 randomized atomic wfcs

     total cpu time spent up to now is        0.2 secs

     Self-consistent Calculation

     iteration #  1     ecut=    25.00 Ry     beta= 0.70
     Davidson diagonalization with overlap
     ethr =  1.00E-02,  avg # of iterations =  2.0

     Threshold (ethr) on eigenvalues was too large:
     Diagonalizing with lowered threshold

     Davidson diagonalization with overlap
     ethr =  7.48E-04,  avg # of iterations =  1.6

     total cpu time spent up to now is        0.4 secs

     total energy              =     -15.71344027 Ry
     estimated scf accuracy    <       0.06913145 Ry

     iteration #  2     ecut=    25.00 Ry     beta= 0.70
     Davidson diagonalization with overlap
     ethr =  8.64E-04,  avg # of iterations =  1.0

     total cpu time spent up to now is        0.4 secs

     total energy              =     -15.71632896 Ry
     estimated scf accuracy    <       0.00332908 Ry

     iteration #  3     ecut=    25.00 Ry     beta= 0.70
     Davidson diagonalization with overlap
     ethr =  4.16E-05,  avg # of iterations =  2.6

     total cpu time spent up to now is        0.6 secs

     total energy              =     -15.71727457 Ry
     estimated scf accuracy    <       0.00013808 Ry

     iteration #  4     ecut=    25.00 Ry     beta= 0.70
     Davidson diagonalization with overlap
     ethr =  1.73E-06,  avg # of iterations =  4.2

     total cpu time spent up to now is        0.7 secs

     total energy              =     -15.71734914 Ry
     estimated scf accuracy    <       0.00001268 Ry

     iteration #  5     ecut=    25.00 Ry     beta= 0.70
     Davidson diagonalization with overlap
     ethr =  1.58E-07,  avg # of iterations =  3.4

     total cpu time spent up to now is        0.8 secs

     End of self-consistent calculation

          k =-0.0833 0.0833 0.0833 (   522 PWs)   bands (ev):

    -5.0347   6.8864   7.5963   7.5963

          k =-0.2500 0.2500-0.0833 (   503 PWs)   bands (ev):

    -4.4965   4.6897   6.1962   7.3872

          k =-0.4167 0.4167-0.2500 (   500 PWs)   bands (ev):

    -3.2429   1.5961   5.7298   6.6746

          k = 0.4167-0.4167 0.5833 (   491 PWs)   bands (ev):

    -2.3944   0.2564   5.8375   6.2340

          k = 0.2500-0.2500 0.4167 (   504 PWs)   bands (ev):

    -3.7210   2.5529   6.2763   6.4012

          k = 0.0833-0.0833 0.2500 (   511 PWs)   bands (ev):

    -4.7635   5.7959   6.8445   7.1343

          k =-0.0833 0.4167 0.0833 (   500 PWs)   bands (ev):

    -4.2253   4.6066   6.0172   6.0701

          k =-0.2500 0.5833-0.0833 (   496 PWs)   bands (ev):

    -3.1904   2.6029   4.5302   5.5944

          k = 0.5833-0.2500 0.7500 (   494 PWs)   bands (ev):

    -1.8627   0.5271   3.9106   5.3150

          k = 0.4167-0.0833 0.5833 (   497 PWs)   bands (ev):

    -2.7296   1.7936   3.7950   5.8939

          k = 0.2500 0.0833 0.4167 (   500 PWs)   bands (ev):

    -3.9679   3.6177   5.3250   6.6917

          k =-0.0833 0.7500 0.0833 (   488 PWs)   bands (ev):

    -2.3923   1.7939   4.4492   4.8658

          k = 0.7500-0.0833 0.9167 (   489 PWs)   bands (ev):

    -1.0147   0.3029   3.4398   4.3696

          k = 0.5833 0.0833 0.7500 (   496 PWs)   bands (ev):

    -1.3895   0.5851   2.9103   4.9993

          k = 0.4167 0.2500 0.5833 (   499 PWs)   bands (ev):

    -2.5802   0.8898   4.9598   6.0156

          k =-0.0833-0.9167 0.0833 (   484 PWs)   bands (ev):

    -1.1417   0.2815   4.1392   4.6261

          k =-0.2500-0.7500-0.0833 (   495 PWs)   bands (ev):

    -2.1886   1.5248   3.8508   4.7527

          k =-0.0833-0.5833 0.0833 (   497 PWs)   bands (ev):

    -3.4295   3.2781   5.0937   5.3370

          k =-0.2500 0.2500 0.2500 (   507 PWs)   bands (ev):

    -4.2353   3.5724   6.9152   6.9152

          k =-0.4167 0.4167 0.0833 (   504 PWs)   bands (ev):

    -3.4620   2.6417   4.4942   6.7401

          k = 0.4167-0.4167 0.9167 (   497 PWs)   bands (ev):

    -2.0928   1.0946   3.2029   5.8293

          k = 0.2500-0.2500 0.7500 (   497 PWs)   bands (ev):

    -2.0434   1.0103   3.7833   5.2718

          k =-0.2500 0.5833 0.2500 (   502 PWs)   bands (ev):

    -2.9740   1.7110   5.1123   5.6943

          k = 0.5833-0.2500 1.0833 (   492 PWs)   bands (ev):

    -1.8192   1.0438   3.3041   4.7318

          k = 0.4167-0.0833 0.9167 (   496 PWs)   bands (ev):

    -0.8597   0.2939   3.0501   3.9458

          k =-0.2500-1.0833 0.2500 (   494 PWs)   bands (ev):

    -1.0935   0.3462   2.9071   5.0523

          k =-0.4167 0.4167 0.4167 (   492 PWs)   bands (ev):

    -2.8449   0.7234   6.4997   6.4997

          k = 0.4167-0.4167 1.2500 (   495 PWs)   bands (ev):

    -2.1314   0.4219   4.4688   5.9793

     highest occupied level (ev):     7.5963

!    total energy              =     -15.71735411 Ry
     estimated scf accuracy    <       0.00000024 Ry

     The total energy is the sum of the following terms:
     one-electron contribution =       5.85791994 Ry
     hartree contribution      =       0.97902155 Ry
     xc contribution           =      -4.96475094 Ry
     ewald contribution        =     -17.58954466 Ry

     convergence has been achieved in   5 iterations

     Writing output data file ./Si_exc1.save/

     init_run     :      0.12s CPU      0.13s WALL (       1 calls)
     electrons    :      0.65s CPU      0.70s WALL (       1 calls)

     Called by init_run:
     wfcinit      :      0.07s CPU      0.07s WALL (       1 calls)
     potinit      :      0.01s CPU      0.01s WALL (       1 calls)
     hinit0       :      0.04s CPU      0.05s WALL (       1 calls)

     Called by electrons:
     c_bands      :      0.51s CPU      0.53s WALL (       6 calls)
     sum_band     :      0.10s CPU      0.10s WALL (       6 calls)
     v_of_rho     :      0.04s CPU      0.04s WALL (       6 calls)
     mix_rho      :      0.00s CPU      0.00s WALL (       6 calls)

     Called by c_bands:
     init_us_2    :      0.03s CPU      0.03s WALL (     364 calls)
     cegterg      :      0.49s CPU      0.50s WALL (     168 calls)

     Called by *egterg:
     cdiaghg      :      0.01s CPU      0.01s WALL (     553 calls)
     h_psi        :      0.50s CPU      0.51s WALL (     609 calls)
     g_psi        :      0.00s CPU      0.00s WALL (     413 calls)

     Called by h_psi:
     h_psi:calbec :      0.01s CPU      0.01s WALL (     609 calls)
     vloc_psi     :      0.48s CPU      0.48s WALL (     609 calls)
     add_vuspsi   :      0.01s CPU      0.01s WALL (     609 calls)

     General routines
     calbec       :      0.01s CPU      0.01s WALL (     609 calls)
     fft          :      0.01s CPU      0.02s WALL (      60 calls)
     ffts         :      0.00s CPU      0.00s WALL (       6 calls)
     fftw         :      0.48s CPU      0.48s WALL (    4998 calls)

     Parallel routines

     PWSCF        :      0.82s CPU      0.88s WALL


   This run was terminated on:  18:31:10  19Sep2022            

=------------------------------------------------------------------------------=
   JOB DONE.
=------------------------------------------------------------------------------=
