
     Program PWSCF v.6.7MaX starts on 19Sep2022 at 18:31:15 

     This program is part of the open-source Quantum ESPRESSO suite
     for quantum simulation of materials; please cite
         "P. Giannozzi et al., J. Phys.:Condens. Matter 21 395502 (2009);
         "P. Giannozzi et al., J. Phys.:Condens. Matter 29 465901 (2017);
          URL http://www.quantum-espresso.org", 
     in publications or presentations arising from this work. More details at
     http://www.quantum-espresso.org/quote

     Parallel version (MPI), running on     1 processors

     MPI processes distributed on     1 nodes
     Waiting for input...
     Reading input from standard input

     Current dimensions of program PWSCF are:
     Max number of different atomic species (ntypx) = 10
     Max number of k-points (npk) =  40000
     Max angular momentum in pseudopotentials (lmaxx) =  3

     Subspace diagonalization in iterative solution of the eigenvalue problem:
     a serial algorithm will be used


     G-vector sticks info
     --------------------
     sticks:   dense  smooth     PW     G-vecs:    dense   smooth      PW
     Sum         397     397    139                 5209     5209    1037



     bravais-lattice index     =            2
     lattice parameter (alat)  =      10.8000  a.u.
     unit-cell volume          =     314.9280 (a.u.)^3
     number of atoms/cell      =            2
     number of atomic types    =            1
     number of electrons       =         8.00
     number of Kohn-Sham states=            4
     kinetic-energy cutoff     =      25.0000  Ry
     charge density cutoff     =     100.0000  Ry
     scf convergence threshold =      1.0E-06
     mixing beta               =       0.7000
     number of iterations used =            8  plain     mixing
     Exchange-correlation=  SLA  PW   PBE  PBE
                           (   1   4   3   4   0   0   0)

     celldm(1)=  10.800000  celldm(2)=   0.000000  celldm(3)=   0.000000
     celldm(4)=   0.000000  celldm(5)=   0.000000  celldm(6)=   0.000000

     crystal axes: (cart. coord. in units of alat)
               a(1) = (  -0.500000   0.000000   0.500000 )  
               a(2) = (   0.000000   0.500000   0.500000 )  
               a(3) = (  -0.500000   0.500000   0.000000 )  

     reciprocal axes: (cart. coord. in units 2 pi/alat)
               b(1) = ( -1.000000 -1.000000  1.000000 )  
               b(2) = (  1.000000  1.000000  1.000000 )  
               b(3) = ( -1.000000  1.000000 -1.000000 )  


     PseudoPot. # 1 for Si read from file:
     ./Si.pbe-rrkj.UPF
     MD5 check sum: cf7ab5690cd9a85b22c4813f7e365554
     Pseudo is Norm-conserving, Zval =  4.0
     Generated by new atomic code, or converted to UPF format
     Using radial grid of  883 points,  3 beta functions with: 
                l(1) =   0
                l(2) =   0
                l(3) =   1

     atomic species   valence    mass     pseudopotential
        Si             4.00    28.08600     Si( 1.00)

     48 Sym. Ops., with inversion, found (24 have fractional translation)



   Cartesian axes

     site n.     atom                  positions (alat units)
         1           Si  tau(   1) = (   0.0000000   0.0000000   0.0000000  )
         2           Si  tau(   2) = (   0.2500000   0.2500000   0.2500000  )

     number of k points=    28
                       cart. coord. in units 2pi/alat
        k(    1) = (  -0.0833333   0.0833333   0.0833333), wk =   0.0185185
        k(    2) = (  -0.2500000   0.2500000  -0.0833333), wk =   0.0555556
        k(    3) = (  -0.4166667   0.4166667  -0.2500000), wk =   0.0555556
        k(    4) = (   0.4166667  -0.4166667   0.5833333), wk =   0.0555556
        k(    5) = (   0.2500000  -0.2500000   0.4166667), wk =   0.0555556
        k(    6) = (   0.0833333  -0.0833333   0.2500000), wk =   0.0555556
        k(    7) = (  -0.0833333   0.4166667   0.0833333), wk =   0.0555556
        k(    8) = (  -0.2500000   0.5833333  -0.0833333), wk =   0.1111111
        k(    9) = (   0.5833333  -0.2500000   0.7500000), wk =   0.1111111
        k(   10) = (   0.4166667  -0.0833333   0.5833333), wk =   0.1111111
        k(   11) = (   0.2500000   0.0833333   0.4166667), wk =   0.1111111
        k(   12) = (  -0.0833333   0.7500000   0.0833333), wk =   0.0555556
        k(   13) = (   0.7500000  -0.0833333   0.9166667), wk =   0.1111111
        k(   14) = (   0.5833333   0.0833333   0.7500000), wk =   0.1111111
        k(   15) = (   0.4166667   0.2500000   0.5833333), wk =   0.1111111
        k(   16) = (  -0.0833333  -0.9166667   0.0833333), wk =   0.0555556
        k(   17) = (  -0.2500000  -0.7500000  -0.0833333), wk =   0.1111111
        k(   18) = (  -0.0833333  -0.5833333   0.0833333), wk =   0.0555556
        k(   19) = (  -0.2500000   0.2500000   0.2500000), wk =   0.0185185
        k(   20) = (  -0.4166667   0.4166667   0.0833333), wk =   0.0555556
        k(   21) = (   0.4166667  -0.4166667   0.9166667), wk =   0.0555556
        k(   22) = (   0.2500000  -0.2500000   0.7500000), wk =   0.0555556
        k(   23) = (  -0.2500000   0.5833333   0.2500000), wk =   0.0555556
        k(   24) = (   0.5833333  -0.2500000   1.0833333), wk =   0.1111111
        k(   25) = (   0.4166667  -0.0833333   0.9166667), wk =   0.1111111
        k(   26) = (  -0.2500000  -1.0833333   0.2500000), wk =   0.0555556
        k(   27) = (  -0.4166667   0.4166667   0.4166667), wk =   0.0185185
        k(   28) = (   0.4166667  -0.4166667   1.2500000), wk =   0.0555556

     Dense  grid:     5209 G-vectors     FFT dimensions: (  32,  32,  32)

     Estimated max dynamical RAM per process >       6.00 MB

     Initial potential from superposition of free atoms

     starting charge    7.99889, renormalised to    8.00000
     Starting wfcs are    8 randomized atomic wfcs

     total cpu time spent up to now is        0.2 secs

     Self-consistent Calculation

     iteration #  1     ecut=    25.00 Ry     beta= 0.70
     Davidson diagonalization with overlap
     ethr =  1.00E-02,  avg # of iterations =  2.0

     Threshold (ethr) on eigenvalues was too large:
     Diagonalizing with lowered threshold

     Davidson diagonalization with overlap
     ethr =  4.48E-04,  avg # of iterations =  2.0

     total cpu time spent up to now is        0.6 secs

     total energy              =     -15.72805484 Ry
     estimated scf accuracy    <       0.04307214 Ry

     iteration #  2     ecut=    25.00 Ry     beta= 0.70
     Davidson diagonalization with overlap
     ethr =  5.38E-04,  avg # of iterations =  1.0

     total cpu time spent up to now is        0.7 secs

     total energy              =     -15.72910726 Ry
     estimated scf accuracy    <       0.00277904 Ry

     iteration #  3     ecut=    25.00 Ry     beta= 0.70
     Davidson diagonalization with overlap
     ethr =  3.47E-05,  avg # of iterations =  2.0

     total cpu time spent up to now is        0.9 secs

     total energy              =     -15.72945193 Ry
     estimated scf accuracy    <       0.00005094 Ry

     iteration #  4     ecut=    25.00 Ry     beta= 0.70
     Davidson diagonalization with overlap
     ethr =  6.37E-07,  avg # of iterations =  5.2

     total cpu time spent up to now is        1.2 secs

     End of self-consistent calculation

          k =-0.0833 0.0833 0.0833 (   655 PWs)   bands (ev):

    -6.1109   3.8511   4.6148   4.6148

          k =-0.2500 0.2500-0.0833 (   659 PWs)   bands (ev):

    -5.6940   1.9022   3.5494   4.4138

          k =-0.4167 0.4167-0.2500 (   655 PWs)   bands (ev):

    -4.7531  -0.5183   3.0984   3.8543

          k = 0.4167-0.4167 0.5833 (   662 PWs)   bands (ev):

    -4.1786  -1.4880   3.1327   3.5291

          k = 0.2500-0.2500 0.4167 (   653 PWs)   bands (ev):

    -5.1041   0.2183   3.5708   3.5991

          k = 0.0833-0.0833 0.2500 (   660 PWs)   bands (ev):

    -5.9000   2.8032   4.0690   4.1835

          k =-0.0833 0.4167 0.0833 (   659 PWs)   bands (ev):

    -5.4822   1.6327   3.3913   3.4351

          k =-0.2500 0.5833-0.0833 (   664 PWs)   bands (ev):

    -4.6911  -0.0168   2.2730   3.0887

          k = 0.5833-0.2500 0.7500 (   671 PWs)   bands (ev):

    -3.7562  -1.4845   1.7125   2.9026

          k = 0.4167-0.0833 0.5833 (   664 PWs)   bands (ev):

    -4.3567  -0.6038   1.7205   3.3091

          k = 0.2500 0.0833 0.4167 (   652 PWs)   bands (ev):

    -5.2872   0.9411   2.8726   3.8652

          k =-0.0833 0.7500 0.0833 (   668 PWs)   bands (ev):

    -4.0651  -0.8154   2.2553   2.5285

          k = 0.7500-0.0833 0.9167 (   668 PWs)   bands (ev):

    -3.0366  -2.0004   1.5614   2.1994

          k = 0.5833 0.0833 0.7500 (   670 PWs)   bands (ev):

    -3.3877  -1.6517   1.1392   2.6663

          k = 0.4167 0.2500 0.5833 (   661 PWs)   bands (ev):

    -4.2735  -1.1023   2.4630   3.3861

          k =-0.0833-0.9167 0.0833 (   666 PWs)   bands (ev):

    -3.1021  -2.0016   2.0233   2.3376

          k =-0.2500-0.7500-0.0833 (   667 PWs)   bands (ev):

    -3.9268  -1.0001   1.8161   2.4955

          k =-0.0833-0.5833 0.0833 (   661 PWs)   bands (ev):

    -4.8659   0.4130   2.7169   2.9018

          k =-0.2500 0.2500 0.2500 (   655 PWs)   bands (ev):

    -5.4948   1.0673   4.0733   4.0733

          k =-0.4167 0.4167 0.0833 (   656 PWs)   bands (ev):

    -4.9055   0.1484   2.2390   3.9146

          k = 0.4167-0.4167 0.9167 (   671 PWs)   bands (ev):

    -3.8988  -1.1702   1.3033   3.2435

          k = 0.2500-0.2500 0.7500 (   672 PWs)   bands (ev):

    -3.8471  -1.2435   1.6938   2.8320

          k =-0.2500 0.5833 0.2500 (   662 PWs)   bands (ev):

    -4.5410  -0.5423   2.5786   3.1573

          k = 0.5833-0.2500 1.0833 (   668 PWs)   bands (ev):

    -3.6791  -1.3180   1.3967   2.5074

          k = 0.4167-0.0833 0.9167 (   673 PWs)   bands (ev):

    -2.9632  -2.0076   1.2883   1.9476

          k =-0.2500-1.0833 0.2500 (   674 PWs)   bands (ev):

    -3.1504  -1.8923   1.1788   2.6618

          k =-0.4167 0.4167 0.4167 (   664 PWs)   bands (ev):

    -4.4823  -1.1403   3.7189   3.7189

          k = 0.4167-0.4167 1.2500 (   665 PWs)   bands (ev):

    -3.9703  -1.4527   2.1018   3.3497

     highest occupied level (ev):     4.6148

!    total energy              =     -15.72951720 Ry
     estimated scf accuracy    <       0.00000021 Ry

     The total energy is the sum of the following terms:
     one-electron contribution =       3.65757453 Ry
     hartree contribution      =       1.23105341 Ry
     xc contribution           =      -4.65726201 Ry
     ewald contribution        =     -15.96088313 Ry

     convergence has been achieved in   4 iterations

     Writing output data file ./Si_exc1.save/

     init_run     :      0.18s CPU      0.18s WALL (       1 calls)
     electrons    :      1.01s CPU      1.08s WALL (       1 calls)

     Called by init_run:
     wfcinit      :      0.12s CPU      0.12s WALL (       1 calls)
     potinit      :      0.02s CPU      0.02s WALL (       1 calls)
     hinit0       :      0.04s CPU      0.04s WALL (       1 calls)

     Called by electrons:
     c_bands      :      0.80s CPU      0.80s WALL (       5 calls)
     sum_band     :      0.15s CPU      0.15s WALL (       5 calls)
     v_of_rho     :      0.08s CPU      0.08s WALL (       5 calls)
     mix_rho      :      0.00s CPU      0.00s WALL (       5 calls)

     Called by c_bands:
     init_us_2    :      0.03s CPU      0.04s WALL (     308 calls)
     cegterg      :      0.77s CPU      0.78s WALL (     140 calls)

     Called by *egterg:
     cdiaghg      :      0.01s CPU      0.01s WALL (     453 calls)
     h_psi        :      0.82s CPU      0.83s WALL (     509 calls)
     g_psi        :      0.01s CPU      0.01s WALL (     341 calls)

     Called by h_psi:
     h_psi:calbec :      0.01s CPU      0.01s WALL (     509 calls)
     vloc_psi     :      0.80s CPU      0.81s WALL (     509 calls)
     add_vuspsi   :      0.01s CPU      0.01s WALL (     509 calls)

     General routines
     calbec       :      0.01s CPU      0.01s WALL (     509 calls)
     fft          :      0.01s CPU      0.01s WALL (      50 calls)
     ffts         :      0.00s CPU      0.00s WALL (       5 calls)
     fftw         :      0.76s CPU      0.77s WALL (    4208 calls)

     Parallel routines

     PWSCF        :      1.24s CPU      1.32s WALL


   This run was terminated on:  18:31:16  19Sep2022            

=------------------------------------------------------------------------------=
   JOB DONE.
=------------------------------------------------------------------------------=
