
     Program PWSCF v.6.7MaX starts on 19Sep2022 at 18:31:11 

     This program is part of the open-source Quantum ESPRESSO suite
     for quantum simulation of materials; please cite
         "P. Giannozzi et al., J. Phys.:Condens. Matter 21 395502 (2009);
         "P. Giannozzi et al., J. Phys.:Condens. Matter 29 465901 (2017);
          URL http://www.quantum-espresso.org", 
     in publications or presentations arising from this work. More details at
     http://www.quantum-espresso.org/quote

     Parallel version (MPI), running on     1 processors

     MPI processes distributed on     1 nodes
     Waiting for input...
     Reading input from standard input

     Current dimensions of program PWSCF are:
     Max number of different atomic species (ntypx) = 10
     Max number of k-points (npk) =  40000
     Max angular momentum in pseudopotentials (lmaxx) =  3

     Subspace diagonalization in iterative solution of the eigenvalue problem:
     a serial algorithm will be used


     G-vector sticks info
     --------------------
     sticks:   dense  smooth     PW     G-vecs:    dense   smooth      PW
     Sum         361     361    121                 4477     4477     893



     bravais-lattice index     =            2
     lattice parameter (alat)  =      10.2000  a.u.
     unit-cell volume          =     265.3020 (a.u.)^3
     number of atoms/cell      =            2
     number of atomic types    =            1
     number of electrons       =         8.00
     number of Kohn-Sham states=            4
     kinetic-energy cutoff     =      25.0000  Ry
     charge density cutoff     =     100.0000  Ry
     scf convergence threshold =      1.0E-06
     mixing beta               =       0.7000
     number of iterations used =            8  plain     mixing
     Exchange-correlation=  SLA  PW   PBE  PBE
                           (   1   4   3   4   0   0   0)

     celldm(1)=  10.200000  celldm(2)=   0.000000  celldm(3)=   0.000000
     celldm(4)=   0.000000  celldm(5)=   0.000000  celldm(6)=   0.000000

     crystal axes: (cart. coord. in units of alat)
               a(1) = (  -0.500000   0.000000   0.500000 )  
               a(2) = (   0.000000   0.500000   0.500000 )  
               a(3) = (  -0.500000   0.500000   0.000000 )  

     reciprocal axes: (cart. coord. in units 2 pi/alat)
               b(1) = ( -1.000000 -1.000000  1.000000 )  
               b(2) = (  1.000000  1.000000  1.000000 )  
               b(3) = ( -1.000000  1.000000 -1.000000 )  


     PseudoPot. # 1 for Si read from file:
     ./Si.pbe-rrkj.UPF
     MD5 check sum: cf7ab5690cd9a85b22c4813f7e365554
     Pseudo is Norm-conserving, Zval =  4.0
     Generated by new atomic code, or converted to UPF format
     Using radial grid of  883 points,  3 beta functions with: 
                l(1) =   0
                l(2) =   0
                l(3) =   1

     atomic species   valence    mass     pseudopotential
        Si             4.00    28.08600     Si( 1.00)

     48 Sym. Ops., with inversion, found (24 have fractional translation)



   Cartesian axes

     site n.     atom                  positions (alat units)
         1           Si  tau(   1) = (   0.0000000   0.0000000   0.0000000  )
         2           Si  tau(   2) = (   0.2500000   0.2500000   0.2500000  )

     number of k points=    28
                       cart. coord. in units 2pi/alat
        k(    1) = (  -0.0833333   0.0833333   0.0833333), wk =   0.0185185
        k(    2) = (  -0.2500000   0.2500000  -0.0833333), wk =   0.0555556
        k(    3) = (  -0.4166667   0.4166667  -0.2500000), wk =   0.0555556
        k(    4) = (   0.4166667  -0.4166667   0.5833333), wk =   0.0555556
        k(    5) = (   0.2500000  -0.2500000   0.4166667), wk =   0.0555556
        k(    6) = (   0.0833333  -0.0833333   0.2500000), wk =   0.0555556
        k(    7) = (  -0.0833333   0.4166667   0.0833333), wk =   0.0555556
        k(    8) = (  -0.2500000   0.5833333  -0.0833333), wk =   0.1111111
        k(    9) = (   0.5833333  -0.2500000   0.7500000), wk =   0.1111111
        k(   10) = (   0.4166667  -0.0833333   0.5833333), wk =   0.1111111
        k(   11) = (   0.2500000   0.0833333   0.4166667), wk =   0.1111111
        k(   12) = (  -0.0833333   0.7500000   0.0833333), wk =   0.0555556
        k(   13) = (   0.7500000  -0.0833333   0.9166667), wk =   0.1111111
        k(   14) = (   0.5833333   0.0833333   0.7500000), wk =   0.1111111
        k(   15) = (   0.4166667   0.2500000   0.5833333), wk =   0.1111111
        k(   16) = (  -0.0833333  -0.9166667   0.0833333), wk =   0.0555556
        k(   17) = (  -0.2500000  -0.7500000  -0.0833333), wk =   0.1111111
        k(   18) = (  -0.0833333  -0.5833333   0.0833333), wk =   0.0555556
        k(   19) = (  -0.2500000   0.2500000   0.2500000), wk =   0.0185185
        k(   20) = (  -0.4166667   0.4166667   0.0833333), wk =   0.0555556
        k(   21) = (   0.4166667  -0.4166667   0.9166667), wk =   0.0555556
        k(   22) = (   0.2500000  -0.2500000   0.7500000), wk =   0.0555556
        k(   23) = (  -0.2500000   0.5833333   0.2500000), wk =   0.0555556
        k(   24) = (   0.5833333  -0.2500000   1.0833333), wk =   0.1111111
        k(   25) = (   0.4166667  -0.0833333   0.9166667), wk =   0.1111111
        k(   26) = (  -0.2500000  -1.0833333   0.2500000), wk =   0.0555556
        k(   27) = (  -0.4166667   0.4166667   0.4166667), wk =   0.0185185
        k(   28) = (   0.4166667  -0.4166667   1.2500000), wk =   0.0555556

     Dense  grid:     4477 G-vectors     FFT dimensions: (  24,  24,  24)

     Estimated max dynamical RAM per process >       4.17 MB

     Initial potential from superposition of free atoms

     starting charge    7.99889, renormalised to    8.00000
     Starting wfcs are    8 randomized atomic wfcs

     total cpu time spent up to now is        0.2 secs

     Self-consistent Calculation

     iteration #  1     ecut=    25.00 Ry     beta= 0.70
     Davidson diagonalization with overlap
     ethr =  1.00E-02,  avg # of iterations =  2.0

     Threshold (ethr) on eigenvalues was too large:
     Diagonalizing with lowered threshold

     Davidson diagonalization with overlap
     ethr =  6.14E-04,  avg # of iterations =  1.9

     total cpu time spent up to now is        0.4 secs

     total energy              =     -15.73742766 Ry
     estimated scf accuracy    <       0.05739232 Ry

     iteration #  2     ecut=    25.00 Ry     beta= 0.70
     Davidson diagonalization with overlap
     ethr =  7.17E-04,  avg # of iterations =  1.0

     total cpu time spent up to now is        0.4 secs

     total energy              =     -15.73943913 Ry
     estimated scf accuracy    <       0.00313312 Ry

     iteration #  3     ecut=    25.00 Ry     beta= 0.70
     Davidson diagonalization with overlap
     ethr =  3.92E-05,  avg # of iterations =  2.1

     total cpu time spent up to now is        0.6 secs

     total energy              =     -15.74010434 Ry
     estimated scf accuracy    <       0.00009856 Ry

     iteration #  4     ecut=    25.00 Ry     beta= 0.70
     Davidson diagonalization with overlap
     ethr =  1.23E-06,  avg # of iterations =  4.6

     total cpu time spent up to now is        0.7 secs

     total energy              =     -15.74018224 Ry
     estimated scf accuracy    <       0.00000362 Ry

     iteration #  5     ecut=    25.00 Ry     beta= 0.70
     Davidson diagonalization with overlap
     ethr =  4.53E-08,  avg # of iterations =  4.4

     total cpu time spent up to now is        0.8 secs

     End of self-consistent calculation

          k =-0.0833 0.0833 0.0833 (   549 PWs)   bands (ev):

    -5.5135   5.5744   6.2750   6.2750

          k =-0.2500 0.2500-0.0833 (   561 PWs)   bands (ev):

    -5.0276   3.4916   5.0195   6.0654

          k =-0.4167 0.4167-0.2500 (   563 PWs)   bands (ev):

    -3.9103   0.6824   4.5583   5.4181

          k = 0.4167-0.4167 0.5833 (   566 PWs)   bands (ev):

    -3.1872  -0.4926   4.6321   5.0291

          k = 0.2500-0.2500 0.4167 (   561 PWs)   bands (ev):

    -4.3327   1.5453   5.0862   5.1402

          k = 0.0833-0.0833 0.2500 (   557 PWs)   bands (ev):

    -5.2683   4.5145   5.6143   5.8200

          k =-0.0833 0.4167 0.0833 (   565 PWs)   bands (ev):

    -4.7821   3.3285   4.8689   4.8705

          k =-0.2500 0.5833-0.0833 (   555 PWs)   bands (ev):

    -3.8530   1.4688   3.5185   4.4800

          k = 0.5833-0.2500 0.7500 (   558 PWs)   bands (ev):

    -2.7025  -0.3339   2.9178   4.2443

          k = 0.4167-0.0833 0.5833 (   561 PWs)   bands (ev):

    -3.4478   0.7576   2.8621   4.7449

          k = 0.2500 0.0833 0.4167 (   559 PWs)   bands (ev):

    -4.5518   2.4661   4.2301   5.4327

          k =-0.0833 0.7500 0.0833 (   560 PWs)   bands (ev):

    -3.1291   0.6502   3.4735   3.8240

          k = 0.7500-0.0833 0.9167 (   560 PWs)   bands (ev):

    -1.9053  -0.7105   2.6063   3.4046

          k = 0.5833 0.0833 0.7500 (   555 PWs)   bands (ev):

    -2.2750  -0.3866   2.1169   3.9627

          k = 0.4167 0.2500 0.5833 (   563 PWs)   bands (ev):

    -3.3291   0.0324   3.8419   4.8458

          k =-0.0833-0.9167 0.0833 (   562 PWs)   bands (ev):

    -2.0034  -0.7208   3.1976   3.6051

          k =-0.2500-0.7500-0.0833 (   561 PWs)   bands (ev):

    -2.9546   0.4193   2.9427   3.7511

          k =-0.0833-0.5833 0.0833 (   562 PWs)   bands (ev):

    -4.0639   2.0302   4.0337   4.2534

          k =-0.2500 0.2500 0.2500 (   564 PWs)   bands (ev):

    -4.7933   2.4912   5.6524   5.6524

          k =-0.4167 0.4167 0.0833 (   560 PWs)   bands (ev):

    -4.0999   1.5670   3.4835   5.4824

          k = 0.4167-0.4167 0.9167 (   557 PWs)   bands (ev):

    -2.8911   0.1156   2.3478   4.6783

          k = 0.2500-0.2500 0.7500 (   558 PWs)   bands (ev):

    -2.8397   0.0358   2.8431   4.1852

          k =-0.2500 0.5833 0.2500 (   562 PWs)   bands (ev):

    -3.6659   0.7401   3.9752   4.5655

          k = 0.5833-0.2500 1.0833 (   559 PWs)   bands (ev):

    -2.6405   0.0154   2.4472   3.7465

          k = 0.4167-0.0833 0.9167 (   556 PWs)   bands (ev):

    -1.7903  -0.7184   2.2677   3.0612

          k =-0.2500-1.0833 0.2500 (   556 PWs)   bands (ev):

    -2.0039  -0.6328   2.1390   3.9870

          k =-0.4167 0.4167 0.4167 (   565 PWs)   bands (ev):

    -3.5696  -0.0824   5.2603   5.2603

          k = 0.4167-0.4167 1.2500 (   563 PWs)   bands (ev):

    -2.9478  -0.3800   3.4068   4.8085

     highest occupied level (ev):     6.2750

!    total energy              =     -15.74018508 Ry
     estimated scf accuracy    <       0.00000017 Ry

     The total energy is the sum of the following terms:
     one-electron contribution =       4.91284741 Ry
     hartree contribution      =       1.07872349 Ry
     xc contribution           =      -4.83199739 Ry
     ewald contribution        =     -16.89975860 Ry

     convergence has been achieved in   5 iterations

     Writing output data file ./Si_exc1.save/

     init_run     :      0.13s CPU      0.13s WALL (       1 calls)
     electrons    :      0.68s CPU      0.73s WALL (       1 calls)

     Called by init_run:
     wfcinit      :      0.07s CPU      0.07s WALL (       1 calls)
     potinit      :      0.01s CPU      0.01s WALL (       1 calls)
     hinit0       :      0.05s CPU      0.05s WALL (       1 calls)

     Called by electrons:
     c_bands      :      0.54s CPU      0.55s WALL (       6 calls)
     sum_band     :      0.10s CPU      0.10s WALL (       6 calls)
     v_of_rho     :      0.04s CPU      0.04s WALL (       6 calls)
     mix_rho      :      0.00s CPU      0.00s WALL (       6 calls)

     Called by c_bands:
     init_us_2    :      0.03s CPU      0.04s WALL (     364 calls)
     cegterg      :      0.52s CPU      0.53s WALL (     168 calls)

     Called by *egterg:
     cdiaghg      :      0.01s CPU      0.01s WALL (     589 calls)
     h_psi        :      0.52s CPU      0.53s WALL (     645 calls)
     g_psi        :      0.01s CPU      0.01s WALL (     449 calls)

     Called by h_psi:
     h_psi:calbec :      0.01s CPU      0.01s WALL (     645 calls)
     vloc_psi     :      0.49s CPU      0.50s WALL (     645 calls)
     add_vuspsi   :      0.01s CPU      0.01s WALL (     645 calls)

     General routines
     calbec       :      0.01s CPU      0.01s WALL (     645 calls)
     fft          :      0.02s CPU      0.02s WALL (      60 calls)
     ffts         :      0.00s CPU      0.00s WALL (       6 calls)
     fftw         :      0.49s CPU      0.50s WALL (    5176 calls)

     Parallel routines

     PWSCF        :      0.85s CPU      0.91s WALL


   This run was terminated on:  18:31:12  19Sep2022            

=------------------------------------------------------------------------------=
   JOB DONE.
=------------------------------------------------------------------------------=
