
     Program PWSCF v.6.7MaX starts on 19Sep2022 at 18:31:19 

     This program is part of the open-source Quantum ESPRESSO suite
     for quantum simulation of materials; please cite
         "P. Giannozzi et al., J. Phys.:Condens. Matter 21 395502 (2009);
         "P. Giannozzi et al., J. Phys.:Condens. Matter 29 465901 (2017);
          URL http://www.quantum-espresso.org", 
     in publications or presentations arising from this work. More details at
     http://www.quantum-espresso.org/quote

     Parallel version (MPI), running on     1 processors

     MPI processes distributed on     1 nodes
     Waiting for input...
     Reading input from standard input

     Current dimensions of program PWSCF are:
     Max number of different atomic species (ntypx) = 10
     Max number of k-points (npk) =  40000
     Max angular momentum in pseudopotentials (lmaxx) =  3

     Subspace diagonalization in iterative solution of the eigenvalue problem:
     a serial algorithm will be used


     G-vector sticks info
     --------------------
     sticks:   dense  smooth     PW     G-vecs:    dense   smooth      PW
     Sum         439     439    151                 6231     6231    1243



     bravais-lattice index     =            2
     lattice parameter (alat)  =      11.4000  a.u.
     unit-cell volume          =     370.3860 (a.u.)^3
     number of atoms/cell      =            2
     number of atomic types    =            1
     number of electrons       =         8.00
     number of Kohn-Sham states=            4
     kinetic-energy cutoff     =      25.0000  Ry
     charge density cutoff     =     100.0000  Ry
     scf convergence threshold =      1.0E-06
     mixing beta               =       0.7000
     number of iterations used =            8  plain     mixing
     Exchange-correlation=  SLA  PW   PBE  PBE
                           (   1   4   3   4   0   0   0)

     celldm(1)=  11.400000  celldm(2)=   0.000000  celldm(3)=   0.000000
     celldm(4)=   0.000000  celldm(5)=   0.000000  celldm(6)=   0.000000

     crystal axes: (cart. coord. in units of alat)
               a(1) = (  -0.500000   0.000000   0.500000 )  
               a(2) = (   0.000000   0.500000   0.500000 )  
               a(3) = (  -0.500000   0.500000   0.000000 )  

     reciprocal axes: (cart. coord. in units 2 pi/alat)
               b(1) = ( -1.000000 -1.000000  1.000000 )  
               b(2) = (  1.000000  1.000000  1.000000 )  
               b(3) = ( -1.000000  1.000000 -1.000000 )  


     PseudoPot. # 1 for Si read from file:
     ./Si.pbe-rrkj.UPF
     MD5 check sum: cf7ab5690cd9a85b22c4813f7e365554
     Pseudo is Norm-conserving, Zval =  4.0
     Generated by new atomic code, or converted to UPF format
     Using radial grid of  883 points,  3 beta functions with: 
                l(1) =   0
                l(2) =   0
                l(3) =   1

     atomic species   valence    mass     pseudopotential
        Si             4.00    28.08600     Si( 1.00)

     48 Sym. Ops., with inversion, found (24 have fractional translation)



   Cartesian axes

     site n.     atom                  positions (alat units)
         1           Si  tau(   1) = (   0.0000000   0.0000000   0.0000000  )
         2           Si  tau(   2) = (   0.2500000   0.2500000   0.2500000  )

     number of k points=    28
                       cart. coord. in units 2pi/alat
        k(    1) = (  -0.0833333   0.0833333   0.0833333), wk =   0.0185185
        k(    2) = (  -0.2500000   0.2500000  -0.0833333), wk =   0.0555556
        k(    3) = (  -0.4166667   0.4166667  -0.2500000), wk =   0.0555556
        k(    4) = (   0.4166667  -0.4166667   0.5833333), wk =   0.0555556
        k(    5) = (   0.2500000  -0.2500000   0.4166667), wk =   0.0555556
        k(    6) = (   0.0833333  -0.0833333   0.2500000), wk =   0.0555556
        k(    7) = (  -0.0833333   0.4166667   0.0833333), wk =   0.0555556
        k(    8) = (  -0.2500000   0.5833333  -0.0833333), wk =   0.1111111
        k(    9) = (   0.5833333  -0.2500000   0.7500000), wk =   0.1111111
        k(   10) = (   0.4166667  -0.0833333   0.5833333), wk =   0.1111111
        k(   11) = (   0.2500000   0.0833333   0.4166667), wk =   0.1111111
        k(   12) = (  -0.0833333   0.7500000   0.0833333), wk =   0.0555556
        k(   13) = (   0.7500000  -0.0833333   0.9166667), wk =   0.1111111
        k(   14) = (   0.5833333   0.0833333   0.7500000), wk =   0.1111111
        k(   15) = (   0.4166667   0.2500000   0.5833333), wk =   0.1111111
        k(   16) = (  -0.0833333  -0.9166667   0.0833333), wk =   0.0555556
        k(   17) = (  -0.2500000  -0.7500000  -0.0833333), wk =   0.1111111
        k(   18) = (  -0.0833333  -0.5833333   0.0833333), wk =   0.0555556
        k(   19) = (  -0.2500000   0.2500000   0.2500000), wk =   0.0185185
        k(   20) = (  -0.4166667   0.4166667   0.0833333), wk =   0.0555556
        k(   21) = (   0.4166667  -0.4166667   0.9166667), wk =   0.0555556
        k(   22) = (   0.2500000  -0.2500000   0.7500000), wk =   0.0555556
        k(   23) = (  -0.2500000   0.5833333   0.2500000), wk =   0.0555556
        k(   24) = (   0.5833333  -0.2500000   1.0833333), wk =   0.1111111
        k(   25) = (   0.4166667  -0.0833333   0.9166667), wk =   0.1111111
        k(   26) = (  -0.2500000  -1.0833333   0.2500000), wk =   0.0555556
        k(   27) = (  -0.4166667   0.4166667   0.4166667), wk =   0.0185185
        k(   28) = (   0.4166667  -0.4166667   1.2500000), wk =   0.0555556

     Dense  grid:     6231 G-vectors     FFT dimensions: (  32,  32,  32)

     Estimated max dynamical RAM per process >       6.68 MB

     Initial potential from superposition of free atoms

     starting charge    7.99889, renormalised to    8.00000
     Starting wfcs are    8 randomized atomic wfcs

     total cpu time spent up to now is        0.2 secs

     Self-consistent Calculation

     iteration #  1     ecut=    25.00 Ry     beta= 0.70
     Davidson diagonalization with overlap
     ethr =  1.00E-02,  avg # of iterations =  1.9

     Threshold (ethr) on eigenvalues was too large:
     Diagonalizing with lowered threshold

     Davidson diagonalization with overlap
     ethr =  3.37E-04,  avg # of iterations =  2.4

     total cpu time spent up to now is        0.6 secs

     total energy              =     -15.68629424 Ry
     estimated scf accuracy    <       0.03247495 Ry

     iteration #  2     ecut=    25.00 Ry     beta= 0.70
     Davidson diagonalization with overlap
     ethr =  4.06E-04,  avg # of iterations =  1.0

     total cpu time spent up to now is        0.8 secs

     total energy              =     -15.68677863 Ry
     estimated scf accuracy    <       0.00247716 Ry

     iteration #  3     ecut=    25.00 Ry     beta= 0.70
     Davidson diagonalization with overlap
     ethr =  3.10E-05,  avg # of iterations =  1.8

     total cpu time spent up to now is        1.0 secs

     total energy              =     -15.68697922 Ry
     estimated scf accuracy    <       0.00002488 Ry

     iteration #  4     ecut=    25.00 Ry     beta= 0.70
     Davidson diagonalization with overlap
     ethr =  3.11E-07,  avg # of iterations =  5.9

     total cpu time spent up to now is        1.4 secs

     End of self-consistent calculation

          k =-0.0833 0.0833 0.0833 (   785 PWs)   bands (ev):

    -6.5943   2.2642   3.2703   3.2703

          k =-0.2500 0.2500-0.0833 (   792 PWs)   bands (ev):

    -6.2364   0.4832   2.3668   3.0838

          k =-0.4167 0.4167-0.2500 (   785 PWs)   bands (ev):

    -5.4433  -1.5737   1.9286   2.6006

          k = 0.4167-0.4167 0.5833 (   785 PWs)   bands (ev):

    -4.9818  -2.3741   1.9327   2.3266

          k = 0.2500-0.2500 0.4167 (   782 PWs)   bands (ev):

    -5.7356  -0.9510   2.3142   2.4019

          k = 0.0833-0.0833 0.2500 (   791 PWs)   bands (ev):

    -6.4128   1.2501   2.8177   2.8742

          k =-0.0833 0.4167 0.0833 (   791 PWs)   bands (ev):

    -6.0537   0.1445   2.2178   2.2770

          k =-0.2500 0.5833-0.0833 (   783 PWs)   bands (ev):

    -5.3796  -1.2944   1.2840   1.9701

          k = 0.5833-0.2500 0.7500 (   781 PWs)   bands (ev):

    -4.6136  -2.4967   0.7739   1.8200

          k = 0.4167-0.0833 0.5833 (   781 PWs)   bands (ev):

    -5.1029  -1.7785   0.8196   2.1538

          k = 0.2500 0.0833 0.4167 (   788 PWs)   bands (ev):

    -5.8885  -0.4006   1.7890   2.6085

          k =-0.0833 0.7500 0.0833 (   781 PWs)   bands (ev):

    -4.8382  -2.0435   1.2759   1.4912

          k = 0.7500-0.0833 0.9167 (   775 PWs)   bands (ev):

    -3.9707  -3.0711   0.7168   1.2297

          k = 0.5833 0.0833 0.7500 (   779 PWs)   bands (ev):

    -4.2954  -2.7254   0.3596   1.6218

          k = 0.4167 0.2500 0.5833 (   787 PWs)   bands (ev):

    -5.0453  -2.1034   1.3739   2.2131

          k =-0.0833-0.9167 0.0833 (   774 PWs)   bands (ev):

    -4.0137  -3.0685   1.0797   1.3246

          k =-0.2500-0.7500-0.0833 (   775 PWs)   bands (ev):

    -4.7283  -2.1917   0.9145   1.4819

          k =-0.0833-0.5833 0.0833 (   788 PWs)   bands (ev):

    -5.5246  -0.9627   1.6619   1.8160

          k =-0.2500 0.2500 0.2500 (   790 PWs)   bands (ev):

    -6.0671  -0.1936   2.8011   2.8011

          k =-0.4167 0.4167 0.0833 (   789 PWs)   bands (ev):

    -5.5658  -1.0900   1.2524   2.6556

          k = 0.4167-0.4167 0.9167 (   783 PWs)   bands (ev):

    -4.7238  -2.2756   0.4791   2.0919

          k = 0.2500-0.2500 0.7500 (   781 PWs)   bands (ev):

    -4.6737  -2.3438   0.7887   1.7470

          k =-0.2500 0.5833 0.2500 (   783 PWs)   bands (ev):

    -5.2592  -1.6664   1.4799   2.0259

          k = 0.5833-0.2500 1.0833 (   778 PWs)   bands (ev):

    -4.5313  -2.4461   0.5634   1.5034

          k = 0.4167-0.0833 0.9167 (   769 PWs)   bands (ev):

    -3.9240  -3.0776   0.4965   1.0438

          k =-0.2500-1.0833 0.2500 (   773 PWs)   bands (ev):

    -4.0881  -2.9500   0.4035   1.6005

          k =-0.4167 0.4167 0.4167 (   772 PWs)   bands (ev):

    -5.2267  -2.0711   2.4841   2.4841

          k = 0.4167-0.4167 1.2500 (   778 PWs)   bands (ev):

    -4.8004  -2.4070   1.0762   2.1792

     highest occupied level (ev):     3.2703

!    total energy              =     -15.68703885 Ry
     estimated scf accuracy    <       0.00000010 Ry

     The total energy is the sum of the following terms:
     one-electron contribution =       2.55500980 Ry
     hartree contribution      =       1.38747483 Ry
     xc contribution           =      -4.50868684 Ry
     ewald contribution        =     -15.12083664 Ry

     convergence has been achieved in   4 iterations

     Writing output data file ./Si_exc1.save/

     init_run     :      0.20s CPU      0.20s WALL (       1 calls)
     electrons    :      1.12s CPU      1.19s WALL (       1 calls)

     Called by init_run:
     wfcinit      :      0.13s CPU      0.13s WALL (       1 calls)
     potinit      :      0.02s CPU      0.02s WALL (       1 calls)
     hinit0       :      0.04s CPU      0.04s WALL (       1 calls)

     Called by electrons:
     c_bands      :      0.89s CPU      0.91s WALL (       5 calls)
     sum_band     :      0.17s CPU      0.17s WALL (       5 calls)
     v_of_rho     :      0.08s CPU      0.08s WALL (       5 calls)
     mix_rho      :      0.00s CPU      0.00s WALL (       5 calls)

     Called by c_bands:
     init_us_2    :      0.04s CPU      0.04s WALL (     308 calls)
     cegterg      :      0.86s CPU      0.88s WALL (     140 calls)

     Called by *egterg:
     cdiaghg      :      0.01s CPU      0.01s WALL (     474 calls)
     h_psi        :      0.92s CPU      0.94s WALL (     530 calls)
     g_psi        :      0.01s CPU      0.01s WALL (     362 calls)

     Called by h_psi:
     h_psi:calbec :      0.01s CPU      0.01s WALL (     530 calls)
     vloc_psi     :      0.89s CPU      0.91s WALL (     530 calls)
     add_vuspsi   :      0.01s CPU      0.01s WALL (     530 calls)

     General routines
     calbec       :      0.01s CPU      0.01s WALL (     530 calls)
     fft          :      0.01s CPU      0.01s WALL (      50 calls)
     ffts         :      0.00s CPU      0.00s WALL (       5 calls)
     fftw         :      0.86s CPU      0.88s WALL (    4290 calls)

     Parallel routines

     PWSCF        :      1.36s CPU      1.45s WALL


   This run was terminated on:  18:31:21  19Sep2022            

=------------------------------------------------------------------------------=
   JOB DONE.
=------------------------------------------------------------------------------=
