
     Program PWSCF v.6.7MaX starts on 19Sep2022 at 22: 6:15 

     This program is part of the open-source Quantum ESPRESSO suite
     for quantum simulation of materials; please cite
         "P. Giannozzi et al., J. Phys.:Condens. Matter 21 395502 (2009);
         "P. Giannozzi et al., J. Phys.:Condens. Matter 29 465901 (2017);
          URL http://www.quantum-espresso.org", 
     in publications or presentations arising from this work. More details at
     http://www.quantum-espresso.org/quote

     Parallel version (MPI), running on     1 processors

     MPI processes distributed on     1 nodes
     Waiting for input...
     Reading input from standard input

     Current dimensions of program PWSCF are:
     Max number of different atomic species (ntypx) = 10
     Max number of k-points (npk) =  40000
     Max angular momentum in pseudopotentials (lmaxx) =  3

     Subspace diagonalization in iterative solution of the eigenvalue problem:
     a serial algorithm will be used


     G-vector sticks info
     --------------------
     sticks:   dense  smooth     PW     G-vecs:    dense   smooth      PW
     Sum         817     817    253                15185    15185    2685



     bravais-lattice index     =            2
     lattice parameter (alat)  =      14.0000  a.u.
     unit-cell volume          =     686.0000 (a.u.)^3
     number of atoms/cell      =            2
     number of atomic types    =            1
     number of electrons       =         8.00
     number of Kohn-Sham states=            4
     kinetic-energy cutoff     =      30.0000  Ry
     charge density cutoff     =     120.0000  Ry
     scf convergence threshold =      1.0E-08
     mixing beta               =       0.7000
     number of iterations used =            8  plain     mixing
     energy convergence thresh.=      1.0E-05
     force convergence thresh. =      1.0E-04
     press convergence thresh. =      5.0E-01
     Exchange-correlation=  SLA  PW   PBE  PBE
                           (   1   4   3   4   0   0   0)
     nstep                     =           50


     celldm(1)=  14.000000  celldm(2)=   0.000000  celldm(3)=   0.000000
     celldm(4)=   0.000000  celldm(5)=   0.000000  celldm(6)=   0.000000

     crystal axes: (cart. coord. in units of alat)
               a(1) = (  -0.500000   0.000000   0.500000 )  
               a(2) = (   0.000000   0.500000   0.500000 )  
               a(3) = (  -0.500000   0.500000   0.000000 )  

     reciprocal axes: (cart. coord. in units 2 pi/alat)
               b(1) = ( -1.000000 -1.000000  1.000000 )  
               b(2) = (  1.000000  1.000000  1.000000 )  
               b(3) = ( -1.000000  1.000000 -1.000000 )  


     PseudoPot. # 1 for Si read from file:
     ./Si.pbe-rrkj.UPF
     MD5 check sum: cf7ab5690cd9a85b22c4813f7e365554
     Pseudo is Norm-conserving, Zval =  4.0
     Generated by new atomic code, or converted to UPF format
     Using radial grid of  883 points,  3 beta functions with: 
                l(1) =   0
                l(2) =   0
                l(3) =   1

     atomic species   valence    mass     pseudopotential
        Si             4.00    28.08550     Si( 1.00)

     48 Sym. Ops., with inversion, found (24 have fractional translation)



   Cartesian axes

     site n.     atom                  positions (alat units)
         1           Si  tau(   1) = (   0.0000000   0.0000000   0.0000000  )
         2           Si  tau(   2) = (   0.2500000   0.2500000   0.2500000  )

     number of k points=    28
                       cart. coord. in units 2pi/alat
        k(    1) = (  -0.0833333   0.0833333   0.0833333), wk =   0.0185185
        k(    2) = (  -0.2500000   0.2500000  -0.0833333), wk =   0.0555556
        k(    3) = (  -0.4166667   0.4166667  -0.2500000), wk =   0.0555556
        k(    4) = (   0.4166667  -0.4166667   0.5833333), wk =   0.0555556
        k(    5) = (   0.2500000  -0.2500000   0.4166667), wk =   0.0555556
        k(    6) = (   0.0833333  -0.0833333   0.2500000), wk =   0.0555556
        k(    7) = (  -0.0833333   0.4166667   0.0833333), wk =   0.0555556
        k(    8) = (  -0.2500000   0.5833333  -0.0833333), wk =   0.1111111
        k(    9) = (   0.5833333  -0.2500000   0.7500000), wk =   0.1111111
        k(   10) = (   0.4166667  -0.0833333   0.5833333), wk =   0.1111111
        k(   11) = (   0.2500000   0.0833333   0.4166667), wk =   0.1111111
        k(   12) = (  -0.0833333   0.7500000   0.0833333), wk =   0.0555556
        k(   13) = (   0.7500000  -0.0833333   0.9166667), wk =   0.1111111
        k(   14) = (   0.5833333   0.0833333   0.7500000), wk =   0.1111111
        k(   15) = (   0.4166667   0.2500000   0.5833333), wk =   0.1111111
        k(   16) = (  -0.0833333  -0.9166667   0.0833333), wk =   0.0555556
        k(   17) = (  -0.2500000  -0.7500000  -0.0833333), wk =   0.1111111
        k(   18) = (  -0.0833333  -0.5833333   0.0833333), wk =   0.0555556
        k(   19) = (  -0.2500000   0.2500000   0.2500000), wk =   0.0185185
        k(   20) = (  -0.4166667   0.4166667   0.0833333), wk =   0.0555556
        k(   21) = (   0.4166667  -0.4166667   0.9166667), wk =   0.0555556
        k(   22) = (   0.2500000  -0.2500000   0.7500000), wk =   0.0555556
        k(   23) = (  -0.2500000   0.5833333   0.2500000), wk =   0.0555556
        k(   24) = (   0.5833333  -0.2500000   1.0833333), wk =   0.1111111
        k(   25) = (   0.4166667  -0.0833333   0.9166667), wk =   0.1111111
        k(   26) = (  -0.2500000  -1.0833333   0.2500000), wk =   0.0555556
        k(   27) = (  -0.4166667   0.4166667   0.4166667), wk =   0.0185185
        k(   28) = (   0.4166667  -0.4166667   1.2500000), wk =   0.0555556

     Dense  grid:    15185 G-vectors     FFT dimensions: (  36,  36,  36)

     Estimated max dynamical RAM per process >      13.95 MB

     Initial potential from superposition of free atoms

     starting charge    7.99889, renormalised to    8.00000
     Starting wfcs are    8 randomized atomic wfcs

     total cpu time spent up to now is        0.8 secs

     Self-consistent Calculation

     iteration #  1     ecut=    30.00 Ry     beta= 0.70
     Davidson diagonalization with overlap
     ethr =  1.00E-02,  avg # of iterations =  1.0

     Threshold (ethr) on eigenvalues was too large:
     Diagonalizing with lowered threshold

     Davidson diagonalization with overlap
     ethr =  1.34E-04,  avg # of iterations =  3.1

     total cpu time spent up to now is        1.9 secs

     total energy              =     -15.43034763 Ry
     estimated scf accuracy    <       0.01217627 Ry

     iteration #  2     ecut=    30.00 Ry     beta= 0.70
     Davidson diagonalization with overlap
     ethr =  1.52E-04,  avg # of iterations =  1.0

     total cpu time spent up to now is        2.3 secs

     total energy              =     -15.43078218 Ry
     estimated scf accuracy    <       0.00117162 Ry

     iteration #  3     ecut=    30.00 Ry     beta= 0.70
     Davidson diagonalization with overlap
     ethr =  1.46E-05,  avg # of iterations =  1.9

     total cpu time spent up to now is        2.8 secs

     total energy              =     -15.43090455 Ry
     estimated scf accuracy    <       0.00001025 Ry

     iteration #  4     ecut=    30.00 Ry     beta= 0.70
     Davidson diagonalization with overlap
     c_bands:  1 eigenvalues not converged
     c_bands:  1 eigenvalues not converged
     ethr =  1.28E-07,  avg # of iterations =  9.7

     total cpu time spent up to now is        4.1 secs

     total energy              =     -15.43094816 Ry
     estimated scf accuracy    <       0.00000323 Ry

     iteration #  5     ecut=    30.00 Ry     beta= 0.70
     Davidson diagonalization with overlap
     c_bands:  1 eigenvalues not converged
     c_bands:  1 eigenvalues not converged
     ethr =  4.04E-08,  avg # of iterations =  3.8

     total cpu time spent up to now is        4.7 secs

     total energy              =     -15.43095068 Ry
     estimated scf accuracy    <       0.00000088 Ry

     iteration #  6     ecut=    30.00 Ry     beta= 0.70
     Davidson diagonalization with overlap
     c_bands:  1 eigenvalues not converged
     c_bands:  1 eigenvalues not converged
     ethr =  1.09E-08,  avg # of iterations =  4.4

     total cpu time spent up to now is        5.4 secs

     total energy              =     -15.43095257 Ry
     estimated scf accuracy    <       0.00000007 Ry

     iteration #  7     ecut=    30.00 Ry     beta= 0.70
     Davidson diagonalization with overlap
     c_bands:  1 eigenvalues not converged
     c_bands:  1 eigenvalues not converged
     c_bands:  1 eigenvalues not converged
     ethr =  9.32E-10,  avg # of iterations =  6.4

     total cpu time spent up to now is        6.2 secs

     End of self-consistent calculation

          k =-0.0833 0.0833 0.0833 (  1898 PWs)   bands (ev):

    -7.9599  -4.0653  -0.2772  -0.2770

          k =-0.2500 0.2500-0.0833 (  1914 PWs)   bands (ev):

    -7.7798  -4.5315  -0.7158  -0.3915

          k =-0.4167 0.4167-0.2500 (  1904 PWs)   bands (ev):

    -7.4047  -5.2693  -1.0532  -0.6475

          k = 0.4167-0.4167 0.5833 (  1900 PWs)   bands (ev):

    -7.2123  -5.5736  -1.1127  -0.7843

          k = 0.2500-0.2500 0.4167 (  1903 PWs)   bands (ev):

    -7.5375  -5.0336  -0.8797  -0.7211

          k = 0.0833-0.0833 0.2500 (  1907 PWs)   bands (ev):

    -7.8678  -4.3160  -0.4976  -0.4857

          k =-0.0833 0.4167 0.0833 (  1916 PWs)   bands (ev):

    -7.6861  -4.7286  -0.8037  -0.7600

          k =-0.2500 0.5833-0.0833 (  1909 PWs)   bands (ev):

    -7.3562  -5.3231  -1.2530  -0.9378

          k = 0.5833-0.2500 0.7500 (  1895 PWs)   bands (ev):

    -7.0189  -5.8083  -1.5412  -1.0074

          k = 0.4167-0.0833 0.5833 (  1902 PWs)   bands (ev):

    -7.2327  -5.5128  -1.4723  -0.8530

          k = 0.2500 0.0833 0.4167 (  1913 PWs)   bands (ev):

    -7.6072  -4.8918  -1.0036  -0.6438

          k =-0.0833 0.7500 0.0833 (  1918 PWs)   bands (ev):

    -7.0794  -5.7211  -1.2693  -1.1852

          k = 0.7500-0.0833 0.9167 (  1896 PWs)   bands (ev):

    -6.6684  -6.2147  -1.5059  -1.2941

          k = 0.5833 0.0833 0.7500 (  1895 PWs)   bands (ev):

    -6.8566  -5.9995  -1.6664  -1.1024

          k = 0.4167 0.2500 0.5833 (  1912 PWs)   bands (ev):

    -7.2226  -5.5433  -1.3179  -0.8313

          k =-0.0833-0.9167 0.0833 (  1903 PWs)   bands (ev):

    -6.6741  -6.2128  -1.3700  -1.2780

          k =-0.2500-0.7500-0.0833 (  1899 PWs)   bands (ev):

    -7.0370  -5.7761  -1.4236  -1.1670

          k =-0.0833-0.5833 0.0833 (  1909 PWs)   bands (ev):

    -7.4206  -5.2153  -1.0747  -1.0066

          k =-0.2500 0.2500 0.2500 (  1910 PWs)   bands (ev):

    -7.6977  -4.7196  -0.5245  -0.5245

          k =-0.4167 0.4167 0.0833 (  1904 PWs)   bands (ev):

    -7.4533  -5.1715  -1.2655  -0.6147

          k = 0.4167-0.4167 0.9167 (  1904 PWs)   bands (ev):

    -7.0605  -5.7492  -1.6249  -0.8925

          k = 0.2500-0.2500 0.7500 (  1903 PWs)   bands (ev):

    -7.0281  -5.7921  -1.5022  -1.0597

          k =-0.2500 0.5833 0.2500 (  1905 PWs)   bands (ev):

    -7.3086  -5.4071  -1.2400  -0.9135

          k = 0.5833-0.2500 1.0833 (  1894 PWs)   bands (ev):

    -6.9587  -5.8752  -1.5819  -1.1399

          k = 0.4167-0.0833 0.9167 (  1901 PWs)   bands (ev):

    -6.6626  -6.2167  -1.5943  -1.3467

          k =-0.2500-1.0833 0.2500 (  1894 PWs)   bands (ev):

    -6.7490  -6.1246  -1.6395  -1.1376

          k =-0.4167 0.4167 0.4167 (  1904 PWs)   bands (ev):

    -7.3176  -5.4210  -0.7087  -0.7087

          k = 0.4167-0.4167 1.2500 (  1906 PWs)   bands (ev):

    -7.1171  -5.6891  -1.4442  -0.8525

     highest occupied level (ev):    -0.2770

!    total energy              =     -15.43095335 Ry
     estimated scf accuracy    <          5.7E-10 Ry

     The total energy is the sum of the following terms:
     one-electron contribution =      -1.14793972 Ry
     hartree contribution      =       2.13664323 Ry
     xc contribution           =      -4.10697557 Ry
     ewald contribution        =     -12.31268128 Ry

     convergence has been achieved in   7 iterations

     Forces acting on atoms (cartesian axes, Ry/au):

     atom    1 type  1   force =    -0.00000000   -0.00000000    0.00000000
     atom    2 type  1   force =     0.00000000    0.00000000   -0.00000000

     Total force =     0.000000     Total SCF correction =     0.000000


     Computing stress (Cartesian axis) and pressure

          total   stress  (Ry/bohr**3)                   (kbar)     P=      -90.97
  -0.00061842   0.00000000   0.00000000          -90.97        0.00        0.00
   0.00000000  -0.00061842  -0.00000000            0.00      -90.97       -0.00
   0.00000000  -0.00000000  -0.00061842            0.00       -0.00      -90.97


     BFGS Geometry Optimization
     Energy error            =      0.0E+00
     Gradient error          =      0.0E+00
     Cell gradient error     =      6.2E-04


     number of scf cycles    =   1
     number of bfgs steps    =   0

     enthalpy new            =     -15.4309533471 Ry

     new trust radius        =       0.0809865656 bohr
ibrav =      2
 celldm(1) =     13.78355430
Input lattice vectors:
    -0.49226980    -0.00000000     0.49226980
     0.00000000     0.49226980     0.49226980
    -0.49226980     0.49226980    -0.00000000
New lattice vectors in INITIAL alat:
    -0.49226980     0.00000000     0.49226980
     0.00000000     0.49226980     0.49226980
    -0.49226980     0.49226980     0.00000000
New lattice vectors in NEW alat (for information only):
    -0.50000000     0.00000000     0.50000000
     0.00000000     0.50000000     0.50000000
    -0.50000000     0.50000000     0.00000000
Discrepancy in bohr =     0.000000    0.000000    0.000000
     new conv_thr            =       0.0000000100 Ry

     new unit-cell volume =    654.67186 a.u.^3 (    97.01236 Ang^3 )
     density =      0.96147 g/cm^3

CELL_PARAMETERS (alat= 14.00000000)
  -0.492269796   0.000000000   0.492269796
   0.000000000   0.492269796   0.492269796
  -0.492269796   0.492269796   0.000000000

ATOMIC_POSITIONS (alat)
Si            0.0000000000        0.0000000000        0.0000000000    0   0   0
Si            0.2461348982        0.2461348982        0.2461348982    0   0   0



     Writing output data file ./tmp/silicon.save/
     NEW-OLD atomic charge density approx. for the potential
     extrapolated charge    7.61723, renormalised to    8.00000

     total cpu time spent up to now is        7.2 secs

     Self-consistent Calculation

     iteration #  1     ecut=    30.00 Ry     beta= 0.70
     Davidson diagonalization with overlap
     ethr =  1.00E-06,  avg # of iterations =  9.0

     total cpu time spent up to now is        8.5 secs

     total energy              =     -15.44809856 Ry
     estimated scf accuracy    <       0.00181760 Ry

     iteration #  2     ecut=    30.00 Ry     beta= 0.70
     Davidson diagonalization with overlap
     ethr =  2.27E-05,  avg # of iterations =  3.0

     total cpu time spent up to now is        9.2 secs

     total energy              =     -15.45093840 Ry
     estimated scf accuracy    <       0.00088009 Ry

     iteration #  3     ecut=    30.00 Ry     beta= 0.70
     Davidson diagonalization with overlap
     ethr =  1.10E-05,  avg # of iterations =  1.1

     total cpu time spent up to now is        9.7 secs

     total energy              =     -15.45086569 Ry
     estimated scf accuracy    <       0.00024493 Ry

     iteration #  4     ecut=    30.00 Ry     beta= 0.70
     Davidson diagonalization with overlap
     ethr =  3.06E-06,  avg # of iterations =  2.2

     total cpu time spent up to now is       10.2 secs

     total energy              =     -15.45090894 Ry
     estimated scf accuracy    <       0.00000132 Ry

     iteration #  5     ecut=    30.00 Ry     beta= 0.70
     Davidson diagonalization with overlap
     ethr =  1.65E-08,  avg # of iterations =  8.1

     total cpu time spent up to now is       11.3 secs

     total energy              =     -15.45091095 Ry
     estimated scf accuracy    <       0.00000920 Ry

     iteration #  6     ecut=    30.00 Ry     beta= 0.70
     Davidson diagonalization with overlap
     ethr =  1.65E-08,  avg # of iterations =  2.4

     total cpu time spent up to now is       11.9 secs

     End of self-consistent calculation

          k =-0.0846 0.0846 0.0846 (  1898 PWs)   bands (ev):

    -7.8734  -3.6663  -0.0781  -0.0781

          k =-0.2539 0.2539-0.0846 (  1914 PWs)   bands (ev):

    -7.6821  -4.1936  -0.5441  -0.1978

          k =-0.4232 0.4232-0.2539 (  1904 PWs)   bands (ev):

    -7.2821  -5.0083  -0.8926  -0.4678

          k = 0.4232-0.4232 0.5925 (  1900 PWs)   bands (ev):

    -7.0756  -5.3411  -0.9504  -0.6124

          k = 0.2539-0.2539 0.4232 (  1903 PWs)   bands (ev):

    -7.4242  -4.7495  -0.7082  -0.5473

          k = 0.0846-0.0846 0.2539 (  1907 PWs)   bands (ev):

    -7.7756  -3.9512  -0.3112  -0.3001

          k =-0.0846 0.4232 0.0846 (  1916 PWs)   bands (ev):

    -7.5828  -4.4096  -0.6362  -0.5901

          k =-0.2539 0.5925-0.0846 (  1909 PWs)   bands (ev):

    -7.2317  -5.0591  -1.1128  -0.7765

          k = 0.5925-0.2539 0.7618 (  1895 PWs)   bands (ev):

    -6.8706  -5.5855  -1.4167  -0.8502

          k = 0.4232-0.0846 0.5925 (  1902 PWs)   bands (ev):

    -7.0995  -5.2657  -1.3462  -0.6862

          k = 0.2539 0.0846 0.4232 (  1913 PWs)   bands (ev):

    -7.4986  -4.5910  -0.8490  -0.4640

          k =-0.0846 0.7618 0.0846 (  1918 PWs)   bands (ev):

    -6.9377  -5.4863  -1.1281  -1.0376

          k = 0.7618-0.0846 0.9311 (  1896 PWs)   bands (ev):

    -6.4990  -6.0155  -1.3813  -1.1540

          k = 0.5925 0.0846 0.7618 (  1895 PWs)   bands (ev):

    -6.6982  -5.7874  -1.5532  -0.9510

          k = 0.4232 0.2539 0.5925 (  1912 PWs)   bands (ev):

    -7.0878  -5.3036  -1.1754  -0.6627

          k =-0.0846-0.9311 0.0846 (  1903 PWs)   bands (ev):

    -6.5059  -6.0133  -1.2343  -1.1350

          k =-0.2539-0.7618-0.0846 (  1899 PWs)   bands (ev):

    -6.8919  -5.5462  -1.2936  -1.0197

          k =-0.0846-0.5925 0.0846 (  1909 PWs)   bands (ev):

    -7.3006  -4.9406  -0.9228  -0.8499

          k =-0.2539 0.2539 0.2539 (  1910 PWs)   bands (ev):

    -7.5947  -4.4044  -0.3391  -0.3391

          k =-0.4232 0.4232 0.0846 (  1904 PWs)   bands (ev):

    -7.3346  -4.8971  -1.1268  -0.4333

          k = 0.4232-0.4232 0.9311 (  1904 PWs)   bands (ev):

    -6.9155  -5.5203  -1.5086  -0.7274

          k = 0.2539-0.2539 0.7618 (  1903 PWs)   bands (ev):

    -6.8814  -5.5657  -1.3767  -0.9046

          k =-0.2539 0.5925 0.2539 (  1905 PWs)   bands (ev):

    -7.1803  -5.1534  -1.0946  -0.7505

          k = 0.5925-0.2539 1.1003 (  1894 PWs)   bands (ev):

    -6.8075  -5.6537  -1.4628  -0.9920

          k = 0.4232-0.0846 0.9311 (  1901 PWs)   bands (ev):

    -6.4921  -6.0178  -1.4765  -1.2124

          k =-0.2539-1.1003 0.2539 (  1894 PWs)   bands (ev):

    -6.5839  -5.9206  -1.5245  -0.9866

          k =-0.4232 0.4232 0.4232 (  1904 PWs)   bands (ev):

    -7.1884  -5.1768  -0.5323  -0.5323

          k = 0.4232-0.4232 1.2696 (  1906 PWs)   bands (ev):

    -6.9747  -5.4607  -1.3107  -0.6848

     highest occupied level (ev):    -0.0781

!    total energy              =     -15.45091182 Ry
     estimated scf accuracy    <          6.4E-10 Ry

     The total energy is the sum of the following terms:
     one-electron contribution =      -0.88737247 Ry
     hartree contribution      =       2.07141706 Ry
     xc contribution           =      -4.12892682 Ry
     ewald contribution        =     -12.50602958 Ry

     convergence has been achieved in   6 iterations

     Forces acting on atoms (cartesian axes, Ry/au):

     atom    1 type  1   force =    -0.00000000   -0.00000000    0.00000000
     atom    2 type  1   force =     0.00000000    0.00000000    0.00000000

     Total force =     0.000000     Total SCF correction =     0.000000


     Computing stress (Cartesian axis) and pressure

          total   stress  (Ry/bohr**3)                   (kbar)     P=      -96.46
  -0.00065569  -0.00000000   0.00000000          -96.46       -0.00        0.00
  -0.00000000  -0.00065569   0.00000000           -0.00      -96.46        0.00
  -0.00000000  -0.00000000  -0.00065569           -0.00       -0.00      -96.46

     Energy error            =      2.0E-02
     Gradient error          =      0.0E+00
     Cell gradient error     =      6.6E-04


     number of scf cycles    =   2
     number of bfgs steps    =   1

     enthalpy old            =     -15.4309533471 Ry
     enthalpy new            =     -15.4509118166 Ry

     CASE: enthalpy_new < enthalpy_old


     WARNING: bfgs curvature condition failed, Theta= 0.778
     new trust radius        =       0.1205371265 bohr
ibrav =      2
 celldm(1) =     13.45888574
Input lattice vectors:
    -0.48067449    -0.00000000     0.48067449
     0.00000000     0.48067449     0.48067449
    -0.48067449     0.48067449    -0.00000000
New lattice vectors in INITIAL alat:
    -0.48067449     0.00000000     0.48067449
     0.00000000     0.48067449     0.48067449
    -0.48067449     0.48067449     0.00000000
New lattice vectors in NEW alat (for information only):
    -0.50000000     0.00000000     0.50000000
     0.00000000     0.50000000     0.50000000
    -0.50000000     0.50000000     0.00000000
Discrepancy in bohr =     0.000000    0.000000    0.000000
     new conv_thr            =            1.0E-10 Ry

     new unit-cell volume =    609.49104 a.u.^3 (    90.31725 Ang^3 )
     density =      1.03274 g/cm^3

CELL_PARAMETERS (alat= 14.00000000)
  -0.480674491   0.000000000   0.480674491
   0.000000000   0.480674491   0.480674491
  -0.480674491   0.480674491   0.000000000

ATOMIC_POSITIONS (alat)
Si            0.0000000000        0.0000000000        0.0000000000    0   0   0
Si            0.2403372454        0.2403372454        0.2403372454    0   0   0



     Writing output data file ./tmp/silicon.save/
     NEW-OLD atomic charge density approx. for the potential
     extrapolated charge    7.40705, renormalised to    8.00000

     total cpu time spent up to now is       13.1 secs

     Self-consistent Calculation

     iteration #  1     ecut=    30.00 Ry     beta= 0.70
     Davidson diagonalization with overlap
     ethr =  1.00E-06,  avg # of iterations = 10.2

     total cpu time spent up to now is       14.6 secs

     total energy              =     -15.47551076 Ry
     estimated scf accuracy    <       0.00433356 Ry

     iteration #  2     ecut=    30.00 Ry     beta= 0.70
     Davidson diagonalization with overlap
     ethr =  5.42E-05,  avg # of iterations =  3.0

     total cpu time spent up to now is       15.3 secs

     total energy              =     -15.48190193 Ry
     estimated scf accuracy    <       0.00184650 Ry

     iteration #  3     ecut=    30.00 Ry     beta= 0.70
     Davidson diagonalization with overlap
     ethr =  2.31E-05,  avg # of iterations =  1.2

     total cpu time spent up to now is       15.7 secs

     total energy              =     -15.48175825 Ry
     estimated scf accuracy    <       0.00050872 Ry

     iteration #  4     ecut=    30.00 Ry     beta= 0.70
     Davidson diagonalization with overlap
     ethr =  6.36E-06,  avg # of iterations =  2.4

     total cpu time spent up to now is       16.3 secs

     total energy              =     -15.48185353 Ry
     estimated scf accuracy    <       0.00003153 Ry

     iteration #  5     ecut=    30.00 Ry     beta= 0.70
     Davidson diagonalization with overlap
     ethr =  3.94E-07,  avg # of iterations =  3.6

     total cpu time spent up to now is       16.9 secs

     total energy              =     -15.48185525 Ry
     estimated scf accuracy    <       0.00002179 Ry

     iteration #  6     ecut=    30.00 Ry     beta= 0.70
     Davidson diagonalization with overlap
     ethr =  2.72E-07,  avg # of iterations =  2.1

     total cpu time spent up to now is       17.8 secs

     total energy              =     -15.48185825 Ry
     estimated scf accuracy    <       0.00000006 Ry

     iteration #  7     ecut=    30.00 Ry     beta= 0.70
     Davidson diagonalization with overlap
     c_bands:  1 eigenvalues not converged
     ethr =  7.44E-10,  avg # of iterations = 11.2

     total cpu time spent up to now is       19.3 secs

     total energy              =     -15.48185925 Ry
     estimated scf accuracy    <       0.00000002 Ry

     iteration #  8     ecut=    30.00 Ry     beta= 0.70
     Davidson diagonalization with overlap
     ethr =  2.93E-10,  avg # of iterations =  2.0

     total cpu time spent up to now is       19.8 secs

     total energy              =     -15.48185925 Ry
     estimated scf accuracy    <          6.8E-10 Ry

     iteration #  9     ecut=    30.00 Ry     beta= 0.70
     Davidson diagonalization with overlap
     c_bands:  1 eigenvalues not converged
     c_bands:  1 eigenvalues not converged
     ethr =  8.49E-12,  avg # of iterations =  7.5

     total cpu time spent up to now is       20.7 secs

     total energy              =     -15.48185925 Ry
     estimated scf accuracy    <       0.00000001 Ry

     iteration # 10     ecut=    30.00 Ry     beta= 0.70
     Davidson diagonalization with overlap
     c_bands:  1 eigenvalues not converged
     ethr =  8.49E-12,  avg # of iterations =  2.6

     total cpu time spent up to now is       21.3 secs

     total energy              =     -15.48185925 Ry
     estimated scf accuracy    <          4.4E-09 Ry

     iteration # 11     ecut=    30.00 Ry     beta= 0.70
     Davidson diagonalization with overlap
     c_bands:  1 eigenvalues not converged
     ethr =  8.49E-12,  avg # of iterations =  3.4

     total cpu time spent up to now is       22.0 secs

     total energy              =     -15.48185925 Ry
     estimated scf accuracy    <          2.0E-10 Ry

     iteration # 12     ecut=    30.00 Ry     beta= 0.70
     Davidson diagonalization with overlap
     ethr =  2.46E-12,  avg # of iterations =  2.2

     total cpu time spent up to now is       22.5 secs

     End of self-consistent calculation

          k =-0.0867 0.0867 0.0867 (  1898 PWs)   bands (ev):

    -7.7379  -3.0200   0.2446   0.2446

          k =-0.2601 0.2601-0.0867 (  1914 PWs)   bands (ev):

    -7.5290  -3.6569  -0.2655   0.1165

          k =-0.4334 0.4334-0.2601 (  1904 PWs)   bands (ev):

    -7.0891  -4.6005  -0.6300  -0.1757

          k = 0.4334-0.4334 0.6068 (  1900 PWs)   bands (ev):

    -6.8594  -4.9803  -0.6842  -0.3330

          k = 0.2601-0.2601 0.4334 (  1903 PWs)   bands (ev):

    -7.2459  -4.3035  -0.4277  -0.2653

          k = 0.0867-0.0867 0.2601 (  1907 PWs)   bands (ev):

    -7.6312  -3.3674  -0.0084   0.0007

          k =-0.0867 0.4334 0.0867 (  1916 PWs)   bands (ev):

    -7.4206  -3.9033  -0.3644  -0.3148

          k =-0.2601 0.6068-0.0867 (  1909 PWs)   bands (ev):

    -7.0357  -4.6424  -0.8854  -0.5146

          k = 0.6068-0.2601 0.7802 (  1895 PWs)   bands (ev):

    -6.6360  -5.2360  -1.2139  -0.5950

          k = 0.4334-0.0867 0.6068 (  1902 PWs)   bands (ev):

    -6.8895  -4.8767  -1.1414  -0.4153

          k = 0.2601 0.0867 0.4334 (  1913 PWs)   bands (ev):

    -7.3281  -4.1156  -0.5981  -0.1718

          k =-0.0867 0.7802 0.0867 (  1918 PWs)   bands (ev):

    -6.7145  -5.1150  -0.8990  -0.7977

          k = 0.7802-0.0867 0.9535 (  1896 PWs)   bands (ev):

    -6.2316  -5.7008  -1.1795  -0.9267

          k = 0.6068 0.0867 0.7802 (  1895 PWs)   bands (ev):

    -6.4475  -5.4532  -1.3699  -0.7052

          k = 0.4334 0.2601 0.6068 (  1912 PWs)   bands (ev):

    -6.8747  -4.9291  -0.9422  -0.3888

          k =-0.0867-0.9535 0.0867 (  1903 PWs)   bands (ev):

    -6.2405  -5.6983  -1.0140  -0.9025

          k =-0.2601-0.7802-0.0867 (  1899 PWs)   bands (ev):

    -6.6631  -5.1831  -1.0830  -0.7805

          k =-0.0867-0.6068 0.0867 (  1909 PWs)   bands (ev):

    -7.1121  -4.5058  -0.6763  -0.5956

          k =-0.2601 0.2601 0.2601 (  1910 PWs)   bands (ev):

    -7.4330  -3.9074  -0.0383  -0.0383

          k =-0.4334 0.4334 0.0867 (  1904 PWs)   bands (ev):

    -7.1479  -4.4651  -0.9017  -0.1388

          k = 0.4334-0.4334 0.9535 (  1904 PWs)   bands (ev):

    -6.6864  -5.1603  -1.3201  -0.4591

          k = 0.2601-0.2601 0.7802 (  1903 PWs)   bands (ev):

    -6.6498  -5.2094  -1.1727  -0.6526

          k =-0.2601 0.6068 0.2601 (  1905 PWs)   bands (ev):

    -6.9781  -4.7549  -0.8574  -0.4858

          k = 0.6068-0.2601 1.1269 (  1894 PWs)   bands (ev):

    -6.5687  -5.3043  -1.2698  -0.7522

          k = 0.4334-0.0867 0.9535 (  1901 PWs)   bands (ev):

    -6.2225  -5.7036  -1.2861  -0.9948

          k =-0.2601-1.1269 0.2601 (  1894 PWs)   bands (ev):

    -6.3226  -5.5990  -1.3386  -0.7413

          k =-0.4334 0.4334 0.4334 (  1904 PWs)   bands (ev):

    -6.9843  -4.7979  -0.2455  -0.2455

          k = 0.4334-0.4334 1.3003 (  1906 PWs)   bands (ev):

    -6.7494  -5.1040  -1.0924  -0.4124

     highest occupied level (ev):     0.2446

!    total energy              =     -15.48185925 Ry
     estimated scf accuracy    <          4.6E-11 Ry

     The total energy is the sum of the following terms:
     one-electron contribution =      -0.48303693 Ry
     hartree contribution      =       1.97370426 Ry
     xc contribution           =      -4.16481420 Ry
     ewald contribution        =     -12.80771238 Ry

     convergence has been achieved in  12 iterations

     Forces acting on atoms (cartesian axes, Ry/au):

     atom    1 type  1   force =    -0.00000000   -0.00000000    0.00000000
     atom    2 type  1   force =     0.00000000    0.00000000   -0.00000000

     Total force =     0.000000     Total SCF correction =     0.000000


     Computing stress (Cartesian axis) and pressure

          total   stress  (Ry/bohr**3)                   (kbar)     P=     -105.13
  -0.00071464   0.00000000   0.00000000         -105.13        0.00        0.00
   0.00000000  -0.00071464  -0.00000000            0.00     -105.13       -0.00
   0.00000000  -0.00000000  -0.00071464            0.00       -0.00     -105.13

     Energy error            =      3.1E-02
     Gradient error          =      0.0E+00
     Cell gradient error     =      7.1E-04


     number of scf cycles    =   3
     number of bfgs steps    =   2

     enthalpy old            =     -15.4509118166 Ry
     enthalpy new            =     -15.4818592524 Ry

     CASE: enthalpy_new < enthalpy_old


     WARNING: bfgs curvature condition failed, Theta= 0.435
     new trust radius        =       0.1786635815 bohr
ibrav =      2
 celldm(1) =     12.97188291
Input lattice vectors:
    -0.46328153     0.00000000     0.46328153
    -0.00000000     0.46328153     0.46328153
    -0.46328153     0.46328153     0.00000000
New lattice vectors in INITIAL alat:
    -0.46328153     0.00000000     0.46328153
     0.00000000     0.46328153     0.46328153
    -0.46328153     0.46328153     0.00000000
New lattice vectors in NEW alat (for information only):
    -0.50000000     0.00000000     0.50000000
     0.00000000     0.50000000     0.50000000
    -0.50000000     0.50000000     0.00000000
Discrepancy in bohr =     0.000000    0.000000    0.000000
     new conv_thr            =            1.0E-10 Ry

     new unit-cell volume =    545.69386 a.u.^3 (    80.86349 Ang^3 )
     density =      1.15348 g/cm^3

CELL_PARAMETERS (alat= 14.00000000)
  -0.463281532   0.000000000   0.463281532
   0.000000000   0.463281532   0.463281532
  -0.463281532   0.463281532   0.000000000

ATOMIC_POSITIONS (alat)
Si            0.0000000000        0.0000000000        0.0000000000    0   0   0
Si            0.2316407662        0.2316407662        0.2316407662    0   0   0



     Writing output data file ./tmp/silicon.save/
     NEW-OLD atomic charge density approx. for the potential
     extrapolated charge    7.06485, renormalised to    8.00000

     total cpu time spent up to now is       24.2 secs

     Self-consistent Calculation

     iteration #  1     ecut=    30.00 Ry     beta= 0.70
     Davidson diagonalization with overlap
     ethr =  1.00E-06,  avg # of iterations = 11.8

     total cpu time spent up to now is       25.8 secs

     total energy              =     -15.51591324 Ry
     estimated scf accuracy    <       0.01085662 Ry

     iteration #  2     ecut=    30.00 Ry     beta= 0.70
     Davidson diagonalization with overlap
     ethr =  1.36E-04,  avg # of iterations =  3.0

     total cpu time spent up to now is       26.5 secs

     total energy              =     -15.53031927 Ry
     estimated scf accuracy    <       0.00377893 Ry

     iteration #  3     ecut=    30.00 Ry     beta= 0.70
     Davidson diagonalization with overlap
     ethr =  4.72E-05,  avg # of iterations =  1.2

     total cpu time spent up to now is       27.0 secs

     total energy              =     -15.53008150 Ry
     estimated scf accuracy    <       0.00100811 Ry

     iteration #  4     ecut=    30.00 Ry     beta= 0.70
     Davidson diagonalization with overlap
     ethr =  1.26E-05,  avg # of iterations =  2.2

     total cpu time spent up to now is       27.5 secs

     total energy              =     -15.53024830 Ry
     estimated scf accuracy    <       0.00001691 Ry

     iteration #  5     ecut=    30.00 Ry     beta= 0.70
     Davidson diagonalization with overlap
     ethr =  2.11E-07,  avg # of iterations =  6.0

     total cpu time spent up to now is       28.4 secs

     total energy              =     -15.53026452 Ry
     estimated scf accuracy    <       0.00002929 Ry

     iteration #  6     ecut=    30.00 Ry     beta= 0.70
     Davidson diagonalization with overlap
     ethr =  2.11E-07,  avg # of iterations =  2.0

     total cpu time spent up to now is       29.0 secs

     total energy              =     -15.53026821 Ry
     estimated scf accuracy    <       0.00000095 Ry

     iteration #  7     ecut=    30.00 Ry     beta= 0.70
     Davidson diagonalization with overlap
     ethr =  1.18E-08,  avg # of iterations =  3.9

     total cpu time spent up to now is       29.7 secs

     total energy              =     -15.53026852 Ry
     estimated scf accuracy    <       0.00000025 Ry

     iteration #  8     ecut=    30.00 Ry     beta= 0.70
     Davidson diagonalization with overlap
     ethr =  3.16E-09,  avg # of iterations =  2.5

     total cpu time spent up to now is       30.2 secs

     total energy              =     -15.53026855 Ry
     estimated scf accuracy    <       0.00000001 Ry

     iteration #  9     ecut=    30.00 Ry     beta= 0.70
     Davidson diagonalization with overlap
     ethr =  1.36E-10,  avg # of iterations =  5.1

     total cpu time spent up to now is       31.0 secs

     total energy              =     -15.53026856 Ry
     estimated scf accuracy    <          1.4E-10 Ry

     iteration # 10     ecut=    30.00 Ry     beta= 0.70
     Davidson diagonalization with overlap
     ethr =  1.74E-12,  avg # of iterations =  7.0

     total cpu time spent up to now is       32.0 secs

     End of self-consistent calculation

          k =-0.0899 0.0899 0.0899 (  1898 PWs)   bands (ev):

    -7.5174  -1.9330   0.7928   0.7928

          k =-0.2698 0.2698-0.0899 (  1914 PWs)   bands (ev):

    -7.2793  -2.7837   0.2085   0.6514

          k =-0.4497 0.4497-0.2698 (  1904 PWs)   bands (ev):

    -6.7727  -3.9516  -0.1781   0.3224

          k = 0.4497-0.4497 0.6296 (  1900 PWs)   bands (ev):

    -6.5031  -4.4119  -0.2241   0.1436

          k = 0.2698-0.2698 0.4497 (  1903 PWs)   bands (ev):

    -6.9545  -3.5893   0.0556   0.2150

          k = 0.0899-0.0899 0.2698 (  1907 PWs)   bands (ev):

    -7.3959  -2.4057   0.5076   0.5114

          k =-0.0899 0.4497 0.0899 (  1916 PWs)   bands (ev):

    -7.1561  -3.0770   0.0986   0.1534

          k =-0.2698 0.6296-0.0899 (  1909 PWs)   bands (ev):

    -6.7154  -3.9660  -0.4975  -0.0682

          k = 0.6296-0.2698 0.8094 (  1895 PWs)   bands (ev):

    -6.2501  -4.6732  -0.8658  -0.1603

          k = 0.4497-0.0899 0.6296 (  1902 PWs)   bands (ev):

    -6.5454  -4.2475  -0.7920   0.0465

          k = 0.2698 0.0899 0.4497 (  1913 PWs)   bands (ev):

    -7.0498  -3.3457  -0.1704   0.3266

          k =-0.0899 0.8094 0.0899 (  1918 PWs)   bands (ev):

    -6.3500  -4.5092  -0.5084  -0.3882

          k = 0.8094-0.0899 0.9893 (  1896 PWs)   bands (ev):

    -5.7937  -5.1868  -0.8365  -0.5392

          k = 0.6296 0.0899 0.8094 (  1895 PWs)   bands (ev):

    -6.0355  -4.9103  -1.0583  -0.2866

          k = 0.4497 0.2698 0.6296 (  1912 PWs)   bands (ev):

    -6.5247  -4.3314  -0.5395   0.0782

          k =-0.0899-0.9893 0.0899 (  1903 PWs)   bands (ev):

    -5.8068  -5.1837  -0.6382  -0.5051

          k =-0.2698-0.8094-0.0899 (  1899 PWs)   bands (ev):

    -6.2887  -4.5914  -0.7241  -0.3732

          k =-0.0899-0.6296 0.0899 (  1909 PWs)   bands (ev):

    -6.8043  -3.7972  -0.2563  -0.1622

          k =-0.2698 0.2698 0.2698 (  1910 PWs)   bands (ev):

    -7.1692  -3.1082   0.4737   0.4737

          k =-0.4497 0.4497 0.0899 (  1904 PWs)   bands (ev):

    -6.8425  -3.7679  -0.5176   0.3632

          k = 0.4497-0.4497 0.9893 (  1904 PWs)   bands (ev):

    -6.3101  -4.5776  -0.9987  -0.0016

          k = 0.2698-0.2698 0.8094 (  1903 PWs)   bands (ev):

    -6.2698  -4.6320  -0.8243  -0.2227

          k =-0.2698 0.6296 0.2698 (  1905 PWs)   bands (ev):

    -6.6470  -4.1139  -0.4491  -0.0347

          k = 0.6296-0.2698 1.1692 (  1894 PWs)   bands (ev):

    -6.1769  -4.7362  -0.9410  -0.3444

          k = 0.4497-0.0899 0.9893 (  1901 PWs)   bands (ev):

    -5.7801  -5.1904  -0.9628  -0.6252

          k =-0.2698-1.1692 0.2698 (  1894 PWs)   bands (ev):

    -5.8936  -5.0755  -1.0229  -0.3224

          k =-0.4497 0.4497 0.4497 (  1904 PWs)   bands (ev):

    -6.6488  -4.2013   0.2436   0.2436

          k = 0.4497-0.4497 1.3491 (  1906 PWs)   bands (ev):

    -6.3786  -4.5346  -0.7158   0.0523

     highest occupied level (ev):     0.7928

!    total energy              =     -15.53026856 Ry
     estimated scf accuracy    <          7.8E-11 Ry

     The total energy is the sum of the following terms:
     one-electron contribution =       0.15563103 Ry
     hartree contribution      =       1.82935032 Ry
     xc contribution           =      -4.22669815 Ry
     ewald contribution        =     -13.28855176 Ry

     convergence has been achieved in  10 iterations

     Forces acting on atoms (cartesian axes, Ry/au):

     atom    1 type  1   force =     0.00000000    0.00000000   -0.00000000
     atom    2 type  1   force =     0.00000000   -0.00000000    0.00000000

     Total force =     0.000000     Total SCF correction =     0.000000


     Computing stress (Cartesian axis) and pressure

          total   stress  (Ry/bohr**3)                   (kbar)     P=     -118.24
  -0.00080378  -0.00000000  -0.00000000         -118.24       -0.00       -0.00
  -0.00000000  -0.00080378   0.00000000           -0.00     -118.24        0.00
  -0.00000000   0.00000000  -0.00080378           -0.00        0.00     -118.24

     Energy error            =      4.8E-02
     Gradient error          =      0.0E+00
     Cell gradient error     =      8.0E-04


     number of scf cycles    =   4
     number of bfgs steps    =   3

     enthalpy old            =     -15.4818592524 Ry
     enthalpy new            =     -15.5302685597 Ry

     CASE: enthalpy_new < enthalpy_old


     WARNING: bfgs curvature condition failed, Theta= 0.651
     uphill step: resetting bfgs history

     new trust radius        =       0.0938819958 bohr
ibrav =      2
 celldm(1) =     12.71121906
Input lattice vectors:
    -0.45397211     0.00000000     0.45397211
    -0.00000000     0.45397211     0.45397211
    -0.45397211     0.45397211     0.00000000
New lattice vectors in INITIAL alat:
    -0.45397211     0.00000000     0.45397211
     0.00000000     0.45397211     0.45397211
    -0.45397211     0.45397211     0.00000000
New lattice vectors in NEW alat (for information only):
    -0.50000000     0.00000000     0.50000000
     0.00000000     0.50000000     0.50000000
    -0.50000000     0.50000000     0.00000000
Discrepancy in bohr =     0.000000    0.000000    0.000000
     new conv_thr            =            1.0E-10 Ry

     new unit-cell volume =    513.45409 a.u.^3 (    76.08605 Ang^3 )
     density =      1.22590 g/cm^3

CELL_PARAMETERS (alat= 14.00000000)
  -0.453972109   0.000000000   0.453972109
   0.000000000   0.453972109   0.453972109
  -0.453972109   0.453972109   0.000000000

ATOMIC_POSITIONS (alat)
Si            0.0000000000        0.0000000000        0.0000000000    0   0   0
Si            0.2269860546        0.2269860546        0.2269860546    0   0   0



     Writing output data file ./tmp/silicon.save/
     NEW-OLD atomic charge density approx. for the potential
     extrapolated charge    7.49775, renormalised to    8.00000

     total cpu time spent up to now is       33.3 secs

     Self-consistent Calculation

     iteration #  1     ecut=    30.00 Ry     beta= 0.70
     Davidson diagonalization with overlap
     ethr =  1.00E-06,  avg # of iterations =  9.3

     total cpu time spent up to now is       34.7 secs

     total energy              =     -15.55285585 Ry
     estimated scf accuracy    <       0.00269703 Ry

     iteration #  2     ecut=    30.00 Ry     beta= 0.70
     Davidson diagonalization with overlap
     ethr =  3.37E-05,  avg # of iterations =  3.0

     total cpu time spent up to now is       35.3 secs

     total energy              =     -15.55695728 Ry
     estimated scf accuracy    <       0.00119376 Ry

     iteration #  3     ecut=    30.00 Ry     beta= 0.70
     Davidson diagonalization with overlap
     ethr =  1.49E-05,  avg # of iterations =  1.1

     total cpu time spent up to now is       35.8 secs

     total energy              =     -15.55686081 Ry
     estimated scf accuracy    <       0.00033831 Ry

     iteration #  4     ecut=    30.00 Ry     beta= 0.70
     Davidson diagonalization with overlap
     ethr =  4.23E-06,  avg # of iterations =  2.0

     total cpu time spent up to now is       36.3 secs

     total energy              =     -15.55691094 Ry
     estimated scf accuracy    <       0.00001511 Ry

     iteration #  5     ecut=    30.00 Ry     beta= 0.70
     Davidson diagonalization with overlap
     ethr =  1.89E-07,  avg # of iterations =  4.0

     total cpu time spent up to now is       37.0 secs

     total energy              =     -15.55691621 Ry
     estimated scf accuracy    <       0.00000640 Ry

     iteration #  6     ecut=    30.00 Ry     beta= 0.70
     Davidson diagonalization with overlap
     ethr =  8.00E-08,  avg # of iterations =  2.4

     total cpu time spent up to now is       37.6 secs

     total energy              =     -15.55691738 Ry
     estimated scf accuracy    <       0.00000013 Ry

     iteration #  7     ecut=    30.00 Ry     beta= 0.70
     Davidson diagonalization with overlap
     ethr =  1.60E-09,  avg # of iterations =  5.7

     total cpu time spent up to now is       38.5 secs

     total energy              =     -15.55691762 Ry
     estimated scf accuracy    <       0.00000002 Ry

     iteration #  8     ecut=    30.00 Ry     beta= 0.70
     Davidson diagonalization with overlap
     ethr =  2.46E-10,  avg # of iterations =  3.0

     total cpu time spent up to now is       39.0 secs

     total energy              =     -15.55691762 Ry
     estimated scf accuracy    <          1.4E-09 Ry

     iteration #  9     ecut=    30.00 Ry     beta= 0.70
     Davidson diagonalization with overlap
     ethr =  1.72E-11,  avg # of iterations =  3.5

     total cpu time spent up to now is       39.6 secs

     total energy              =     -15.55691762 Ry
     estimated scf accuracy    <          5.1E-10 Ry

     iteration # 10     ecut=    30.00 Ry     beta= 0.70
     Davidson diagonalization with overlap
     ethr =  6.40E-12,  avg # of iterations =  1.5

     total cpu time spent up to now is       40.1 secs

     End of self-consistent calculation

          k =-0.0918 0.0918 0.0918 (  1898 PWs)   bands (ev):

    -7.3893  -1.2924   1.1220   1.1220

          k =-0.2753 0.2753-0.0918 (  1914 PWs)   bands (ev):

    -7.1343  -2.2853   0.4937   0.9732

          k =-0.4589 0.4589-0.2753 (  1904 PWs)   bands (ev):

    -6.5883  -3.5873   0.0964   0.6225

          k = 0.4589-0.4589 0.6425 (  1900 PWs)   bands (ev):

    -6.2943  -4.0954   0.0561   0.4310

          k = 0.2753-0.2753 0.4589 (  1903 PWs)   bands (ev):

    -6.7850  -3.1864   0.3493   0.5040

          k = 0.0918-0.0918 0.2753 (  1907 PWs)   bands (ev):

    -7.2594  -1.8508   0.8179   0.8186

          k =-0.0918 0.4589 0.0918 (  1916 PWs)   bands (ev):

    -7.0026  -2.6020   0.3774   0.4347

          k =-0.2753 0.6425-0.0918 (  1909 PWs)   bands (ev):

    -6.5292  -3.5776  -0.2636   0.2007

          k = 0.6425-0.2753 0.8260 (  1895 PWs)   bands (ev):

    -6.0244  -4.3523  -0.6544   0.1014

          k = 0.4589-0.0918 0.6425 (  1902 PWs)   bands (ev):

    -6.3450  -3.8871  -0.5811   0.3246

          k = 0.2753 0.0918 0.4589 (  1913 PWs)   bands (ev):

    -6.8881  -2.9063   0.0873   0.6270

          k =-0.0918 0.8260 0.0918 (  1918 PWs)   bands (ev):

    -6.1383  -4.1586  -0.2732  -0.1412

          k = 0.8260-0.0918 1.0096 (  1896 PWs)   bands (ev):

    -5.5389  -4.8887  -0.6305  -0.3058

          k = 0.6425 0.0918 0.8260 (  1895 PWs)   bands (ev):

    -5.7948  -4.5974  -0.8710  -0.0345

          k = 0.4589 0.2753 0.6425 (  1912 PWs)   bands (ev):

    -6.3203  -3.9942  -0.2938   0.3596

          k =-0.0918-1.0096 0.0918 (  1903 PWs)   bands (ev):

    -5.5550  -4.8853  -0.4118  -0.2651

          k =-0.2753-0.8260-0.0918 (  1899 PWs)   bands (ev):

    -6.0709  -4.2495  -0.5081  -0.1280

          k =-0.0918-0.6425 0.0918 (  1909 PWs)   bands (ev):

    -6.6256  -3.3885  -0.0034   0.0988

          k =-0.2753 0.2753 0.2753 (  1910 PWs)   bands (ev):

    -7.0160  -2.6573   0.7816   0.7816

          k =-0.4589 0.4589 0.0918 (  1904 PWs)   bands (ev):

    -6.6649  -3.3705  -0.2858   0.6656

          k = 0.4589-0.4589 1.0096 (  1904 PWs)   bands (ev):

    -6.0905  -4.2434  -0.8049   0.2742

          k = 0.2753-0.2753 0.8260 (  1903 PWs)   bands (ev):

    -6.0482  -4.3005  -0.6138   0.0365

          k =-0.2753 0.6425 0.2753 (  1905 PWs)   bands (ev):

    -6.4541  -3.7494  -0.2007   0.2371

          k = 0.6425-0.2753 1.1932 (  1894 PWs)   bands (ev):

    -5.9485  -4.4086  -0.7431  -0.0994

          k = 0.4589-0.0918 1.0096 (  1901 PWs)   bands (ev):

    -5.5221  -4.8928  -0.7688  -0.4034

          k =-0.2753-1.1932 0.2753 (  1894 PWs)   bands (ev):

    -5.6432  -4.7731  -0.8335  -0.0697

          k =-0.4589 0.4589 0.4589 (  1904 PWs)   bands (ev):

    -6.4527  -3.8698   0.5385   0.5385

          k = 0.4589-0.4589 1.3767 (  1906 PWs)   bands (ev):

    -6.1615  -4.2132  -0.4861   0.3324

     highest occupied level (ev):     1.1220

!    total energy              =     -15.55691762 Ry
     estimated scf accuracy    <          8.4E-11 Ry

     The total energy is the sum of the following terms:
     one-electron contribution =       0.51506817 Ry
     hartree contribution      =       1.75323298 Ry
     xc contribution           =      -4.26416404 Ry
     ewald contribution        =     -13.56105474 Ry

     convergence has been achieved in  10 iterations

     Forces acting on atoms (cartesian axes, Ry/au):

     atom    1 type  1   force =     0.00000000   -0.00000000    0.00000000
     atom    2 type  1   force =     0.00000000    0.00000000   -0.00000000

     Total force =     0.000000     Total SCF correction =     0.000000


     Computing stress (Cartesian axis) and pressure

          total   stress  (Ry/bohr**3)                   (kbar)     P=     -124.91
  -0.00084914  -0.00000000   0.00000000         -124.91       -0.00        0.00
  -0.00000000  -0.00084914   0.00000000           -0.00     -124.91        0.00
   0.00000000   0.00000000  -0.00084914            0.00        0.00     -124.91

     Energy error            =      2.7E-02
     Gradient error          =      0.0E+00
     Cell gradient error     =      8.5E-04


     number of scf cycles    =   5
     number of bfgs steps    =   4

     enthalpy old            =     -15.5302685597 Ry
     enthalpy new            =     -15.5569176233 Ry

     CASE: enthalpy_new < enthalpy_old


     WARNING: bfgs curvature condition failed, Theta= 0.789
     new trust radius        =       0.1394009278 bohr
ibrav =      2
 celldm(1) =     12.32022328
Input lattice vectors:
    -0.44000797    -0.00000000     0.44000797
     0.00000000     0.44000797     0.44000797
    -0.44000797     0.44000797    -0.00000000
New lattice vectors in INITIAL alat:
    -0.44000797     0.00000000     0.44000797
     0.00000000     0.44000797     0.44000797
    -0.44000797     0.44000797     0.00000000
New lattice vectors in NEW alat (for information only):
    -0.50000000     0.00000000     0.50000000
     0.00000000     0.50000000     0.50000000
    -0.50000000     0.50000000     0.00000000
Discrepancy in bohr =     0.000000    0.000000    0.000000
     new conv_thr            =            1.0E-10 Ry

     new unit-cell volume =    467.51521 a.u.^3 (    69.27861 Ang^3 )
     density =      1.34636 g/cm^3

CELL_PARAMETERS (alat= 14.00000000)
  -0.440007974   0.000000000   0.440007974
   0.000000000   0.440007974   0.440007974
  -0.440007974   0.440007974   0.000000000

ATOMIC_POSITIONS (alat)
Si            0.0000000000        0.0000000000        0.0000000000    0   0   0
Si            0.2200039871        0.2200039871        0.2200039871    0   0   0



     Writing output data file ./tmp/silicon.save/
     NEW-OLD atomic charge density approx. for the potential
     extrapolated charge    7.21401, renormalised to    8.00000

     total cpu time spent up to now is       42.0 secs

     Self-consistent Calculation

     iteration #  1     ecut=    30.00 Ry     beta= 0.70
     Davidson diagonalization with overlap
     ethr =  1.00E-06,  avg # of iterations = 10.5

     total cpu time spent up to now is       43.6 secs

     total energy              =     -15.58803023 Ry
     estimated scf accuracy    <       0.00666099 Ry

     iteration #  2     ecut=    30.00 Ry     beta= 0.70
     Davidson diagonalization with overlap
     ethr =  8.33E-05,  avg # of iterations =  3.0

     total cpu time spent up to now is       44.2 secs

     total energy              =     -15.59737354 Ry
     estimated scf accuracy    <       0.00259916 Ry

     iteration #  3     ecut=    30.00 Ry     beta= 0.70
     Davidson diagonalization with overlap
     ethr =  3.25E-05,  avg # of iterations =  1.2

     total cpu time spent up to now is       44.7 secs

     total energy              =     -15.59718939 Ry
     estimated scf accuracy    <       0.00070601 Ry

     iteration #  4     ecut=    30.00 Ry     beta= 0.70
     Davidson diagonalization with overlap
     ethr =  8.83E-06,  avg # of iterations =  2.0

     total cpu time spent up to now is       45.2 secs

     total energy              =     -15.59728642 Ry
     estimated scf accuracy    <       0.00001150 Ry

     iteration #  5     ecut=    30.00 Ry     beta= 0.70
     Davidson diagonalization with overlap
     ethr =  1.44E-07,  avg # of iterations =  5.6

     total cpu time spent up to now is       46.1 secs

     total energy              =     -15.59729845 Ry
     estimated scf accuracy    <       0.00001196 Ry

     iteration #  6     ecut=    30.00 Ry     beta= 0.70
     Davidson diagonalization with overlap
     ethr =  1.44E-07,  avg # of iterations =  2.0

     total cpu time spent up to now is       46.7 secs

     total energy              =     -15.59729999 Ry
     estimated scf accuracy    <       0.00000130 Ry

     iteration #  7     ecut=    30.00 Ry     beta= 0.70
     Davidson diagonalization with overlap
     ethr =  1.63E-08,  avg # of iterations =  1.8

     total cpu time spent up to now is       47.2 secs

     total energy              =     -15.59730009 Ry
     estimated scf accuracy    <       0.00000017 Ry

     iteration #  8     ecut=    30.00 Ry     beta= 0.70
     Davidson diagonalization with overlap
     ethr =  2.13E-09,  avg # of iterations =  3.4

     total cpu time spent up to now is       47.8 secs

     total energy              =     -15.59730014 Ry
     estimated scf accuracy    <       0.00000014 Ry

     iteration #  9     ecut=    30.00 Ry     beta= 0.70
     Davidson diagonalization with overlap
     ethr =  1.74E-09,  avg # of iterations =  1.0

     total cpu time spent up to now is       48.2 secs

     total energy              =     -15.59730010 Ry
     estimated scf accuracy    <       0.00000017 Ry

     iteration # 10     ecut=    30.00 Ry     beta= 0.70
     Davidson diagonalization with overlap
     ethr =  1.74E-09,  avg # of iterations =  1.0

     total cpu time spent up to now is       48.6 secs

     total energy              =     -15.59730008 Ry
     estimated scf accuracy    <       0.00000005 Ry

     iteration # 11     ecut=    30.00 Ry     beta= 0.70
     Davidson diagonalization with overlap
     ethr =  6.50E-10,  avg # of iterations =  2.1

     total cpu time spent up to now is       49.2 secs

     total energy              =     -15.59730009 Ry
     estimated scf accuracy    <          4.8E-10 Ry

     iteration # 12     ecut=    30.00 Ry     beta= 0.70
     Davidson diagonalization with overlap
     ethr =  5.97E-12,  avg # of iterations =  5.4

     total cpu time spent up to now is       50.0 secs

     End of self-consistent calculation

          k =-0.0947 0.0947 0.0947 (  1898 PWs)   bands (ev):

    -7.1817  -0.2628   1.6693   1.6693

          k =-0.2841 0.2841-0.0947 (  1914 PWs)   bands (ev):

    -6.8993  -1.5026   0.9689   1.5092

          k =-0.4735 0.4735-0.2841 (  1904 PWs)   bands (ev):

    -6.2888  -3.0198   0.5572   1.1233

          k = 0.4735-0.4735 0.6629 (  1900 PWs)   bands (ev):

    -5.9535  -3.6059   0.5274   0.9107

          k = 0.2841-0.2841 0.4735 (  1903 PWs)   bands (ev):

    -6.5101  -2.5570   0.8430   0.9856

          k = 0.0947-0.0947 0.2841 (  1907 PWs)   bands (ev):

    -7.0380  -0.9728   1.3275   1.3380

          k =-0.0947 0.4735 0.0947 (  1916 PWs)   bands (ev):

    -6.7539  -1.8468   0.8428   0.9031

          k =-0.2841 0.6629-0.0947 (  1909 PWs)   bands (ev):

    -6.2274  -2.9579   0.1271   0.6492

          k = 0.6629-0.2841 0.8523 (  1895 PWs)   bands (ev):

    -5.6567  -3.8435  -0.2987   0.5376

          k = 0.4735-0.0947 0.6629 (  1902 PWs)   bands (ev):

    -6.0195  -3.3135  -0.2285   0.7884

          k = 0.2841 0.0947 0.4735 (  1913 PWs)   bands (ev):

    -6.6261  -2.2118   0.5174   1.1285

          k =-0.0947 0.8523 0.0947 (  1918 PWs)   bands (ev):

    -5.7958  -3.5944   0.1193   0.2715

          k = 0.8523-0.0947 1.0416 (  1896 PWs)   bands (ev):

    -5.1261  -4.4073  -0.2877   0.0835

          k = 0.6629 0.0947 0.8523 (  1895 PWs)   bands (ev):

    -5.4032  -4.0955  -0.5590   0.3857

          k = 0.4735 0.2841 0.6629 (  1912 PWs)   bands (ev):

    -5.9875  -3.4660   0.1209   0.8292

          k =-0.0947-1.0416 0.0947 (  1903 PWs)   bands (ev):

    -5.1479  -4.4036  -0.0341   0.1362

          k =-0.2841-0.8523-0.0947 (  1899 PWs)   bands (ev):

    -5.7180  -3.6997  -0.1478   0.2806

          k =-0.0947-0.6629 0.0947 (  1909 PWs)   bands (ev):

    -6.3363  -2.7342   0.4184   0.5340

          k =-0.2841 0.2841 0.2841 (  1910 PWs)   bands (ev):

    -6.7675  -1.9555   1.2945   1.2945

          k =-0.4735 0.4735 0.0947 (  1904 PWs)   bands (ev):

    -6.3768  -2.7420   0.1018   1.1699

          k = 0.4735-0.4735 1.0416 (  1904 PWs)   bands (ev):

    -5.7333  -3.7104  -0.4813   0.7344

          k = 0.2841-0.2841 0.8523 (  1903 PWs)   bands (ev):

    -5.6883  -3.7711  -0.2614   0.4693

          k =-0.2841 0.6629 0.2841 (  1905 PWs)   bands (ev):

    -6.1410  -3.1739   0.2178   0.6904

          k = 0.6629-0.2841 1.2310 (  1894 PWs)   bands (ev):

    -5.5773  -3.8828  -0.4128   0.3085

          k = 0.4735-0.0947 1.0416 (  1901 PWs)   bands (ev):

    -5.1032  -4.4121  -0.4465  -0.0345

          k =-0.2841-1.2310 0.2841 (  1894 PWs)   bands (ev):

    -5.2362  -4.2867  -0.5186   0.3525

          k =-0.4735 0.4735 0.4735 (  1904 PWs)   bands (ev):

    -6.1333  -3.3578   1.0308   1.0308

          k = 0.4735-0.4735 1.4204 (  1906 PWs)   bands (ev):

    -5.8074  -3.7092  -0.0983   0.7999

     highest occupied level (ev):     1.6693

!    total energy              =     -15.59730009 Ry
     estimated scf accuracy    <          3.4E-11 Ry

     The total energy is the sum of the following terms:
     one-electron contribution =       1.07992644 Ry
     hartree contribution      =       1.64091388 Ry
     xc contribution           =      -4.32671075 Ry
     ewald contribution        =     -13.99142966 Ry

     convergence has been achieved in  12 iterations

     Forces acting on atoms (cartesian axes, Ry/au):

     atom    1 type  1   force =    -0.00000000   -0.00000000   -0.00000000
     atom    2 type  1   force =    -0.00000000   -0.00000000   -0.00000000

     Total force =     0.000000     Total SCF correction =     0.000000


     Computing stress (Cartesian axis) and pressure

          total   stress  (Ry/bohr**3)                   (kbar)     P=     -133.37
  -0.00090666   0.00000000   0.00000000         -133.37        0.00        0.00
   0.00000000  -0.00090666  -0.00000000            0.00     -133.37       -0.00
  -0.00000000  -0.00000000  -0.00090666           -0.00       -0.00     -133.37

     Energy error            =      4.0E-02
     Gradient error          =      0.0E+00
     Cell gradient error     =      9.1E-04


     number of scf cycles    =   6
     number of bfgs steps    =   5

     enthalpy old            =     -15.5569176233 Ry
     enthalpy new            =     -15.5973000899 Ry

     CASE: enthalpy_new < enthalpy_old


     WARNING: bfgs curvature condition failed, Theta= 0.609
     uphill step: resetting bfgs history

     new trust radius        =       0.0980193549 bohr
ibrav =      2
 celldm(1) =     12.04096725
Input lattice vectors:
    -0.43003454    -0.00000000     0.43003454
     0.00000000     0.43003454     0.43003454
    -0.43003454     0.43003454    -0.00000000
New lattice vectors in INITIAL alat:
    -0.43003454     0.00000000     0.43003454
     0.00000000     0.43003454     0.43003454
    -0.43003454     0.43003454     0.00000000
New lattice vectors in NEW alat (for information only):
    -0.50000000     0.00000000     0.50000000
     0.00000000     0.50000000     0.50000000
    -0.50000000     0.50000000     0.00000000
Discrepancy in bohr =     0.000000    0.000000    0.000000
     new conv_thr            =            1.0E-10 Ry

     new unit-cell volume =    436.43959 a.u.^3 (    64.67367 Ang^3 )
     density =      1.44223 g/cm^3

CELL_PARAMETERS (alat= 14.00000000)
  -0.430034545   0.000000000   0.430034545
   0.000000000   0.430034545   0.430034545
  -0.430034545   0.430034545   0.000000000

ATOMIC_POSITIONS (alat)
Si            0.0000000000        0.0000000000        0.0000000000    0   0   0
Si            0.2150172724        0.2150172724        0.2150172724    0   0   0



     Writing output data file ./tmp/silicon.save/
     NEW-OLD atomic charge density approx. for the potential
     extrapolated charge    7.43046, renormalised to    8.00000

     total cpu time spent up to now is       52.0 secs

     Self-consistent Calculation

     iteration #  1     ecut=    30.00 Ry     beta= 0.70
     Davidson diagonalization with overlap
     ethr =  1.00E-06,  avg # of iterations =  9.3

     total cpu time spent up to now is       53.4 secs

     total energy              =     -15.62121656 Ry
     estimated scf accuracy    <       0.00315801 Ry

     iteration #  2     ecut=    30.00 Ry     beta= 0.70
     Davidson diagonalization with overlap
     ethr =  3.95E-05,  avg # of iterations =  3.1

     total cpu time spent up to now is       54.0 secs

     total energy              =     -15.62597953 Ry
     estimated scf accuracy    <       0.00140482 Ry

     iteration #  3     ecut=    30.00 Ry     beta= 0.70
     Davidson diagonalization with overlap
     ethr =  1.76E-05,  avg # of iterations =  1.0

     total cpu time spent up to now is       54.5 secs

     total energy              =     -15.62586499 Ry
     estimated scf accuracy    <       0.00039465 Ry

     iteration #  4     ecut=    30.00 Ry     beta= 0.70
     Davidson diagonalization with overlap
     ethr =  4.93E-06,  avg # of iterations =  2.0

     total cpu time spent up to now is       55.0 secs

     total energy              =     -15.62591731 Ry
     estimated scf accuracy    <       0.00001470 Ry

     iteration #  5     ecut=    30.00 Ry     beta= 0.70
     Davidson diagonalization with overlap
     ethr =  1.84E-07,  avg # of iterations =  3.8

     total cpu time spent up to now is       55.7 secs

     total energy              =     -15.62592129 Ry
     estimated scf accuracy    <       0.00000654 Ry

     iteration #  6     ecut=    30.00 Ry     beta= 0.70
     Davidson diagonalization with overlap
     ethr =  8.17E-08,  avg # of iterations =  2.1

     total cpu time spent up to now is       56.3 secs

     total energy              =     -15.62592233 Ry
     estimated scf accuracy    <       0.00000056 Ry

     iteration #  7     ecut=    30.00 Ry     beta= 0.70
     Davidson diagonalization with overlap
     ethr =  6.97E-09,  avg # of iterations =  3.4

     total cpu time spent up to now is       56.9 secs

     total energy              =     -15.62592247 Ry
     estimated scf accuracy    <       0.00000008 Ry

     iteration #  8     ecut=    30.00 Ry     beta= 0.70
     Davidson diagonalization with overlap
     ethr =  9.78E-10,  avg # of iterations =  2.8

     total cpu time spent up to now is       57.4 secs

     total energy              =     -15.62592248 Ry
     estimated scf accuracy    <       0.00000004 Ry

     iteration #  9     ecut=    30.00 Ry     beta= 0.70
     Davidson diagonalization with overlap
     ethr =  4.69E-10,  avg # of iterations =  1.2

     total cpu time spent up to now is       57.9 secs

     total energy              =     -15.62592247 Ry
     estimated scf accuracy    <          8.6E-09 Ry

     iteration # 10     ecut=    30.00 Ry     beta= 0.70
     Davidson diagonalization with overlap
     ethr =  1.08E-10,  avg # of iterations =  2.5

     total cpu time spent up to now is       58.4 secs

     total energy              =     -15.62592248 Ry
     estimated scf accuracy    <          4.3E-10 Ry

     iteration # 11     ecut=    30.00 Ry     beta= 0.70
     Davidson diagonalization with overlap
     ethr =  5.40E-12,  avg # of iterations =  4.4

     total cpu time spent up to now is       59.2 secs

     End of self-consistent calculation

          k =-0.0969 0.0969 0.0969 (  1898 PWs)   bands (ev):

    -7.0200   0.5075   2.1046   2.1046

          k =-0.2907 0.2907-0.0969 (  1914 PWs)   bands (ev):

    -6.7164  -0.9206   1.3478   1.9363

          k =-0.4845 0.4845-0.2907 (  1904 PWs)   bands (ev):

    -6.0553  -2.5987   0.9270   1.5232

          k = 0.4845-0.4845 0.6782 (  1900 PWs)   bands (ev):

    -5.6866  -3.2451   0.9061   1.2938

          k = 0.2907-0.2907 0.4845 (  1903 PWs)   bands (ev):

    -6.2961  -2.0892   1.2395   1.3697

          k = 0.0969-0.0969 0.2907 (  1907 PWs)   bands (ev):

    -6.8656  -0.3180   1.7328   1.7532

          k =-0.0969 0.4845 0.0969 (  1916 PWs)   bands (ev):

    -6.5604  -1.2755   1.2145   1.2761

          k =-0.2907 0.6782-0.0969 (  1909 PWs)   bands (ev):

    -5.9928  -2.4858   0.4394   1.0070

          k = 0.6782-0.2907 0.8720 (  1895 PWs)   bands (ev):

    -5.3694  -3.4584  -0.0120   0.8854

          k = 0.4845-0.0969 0.6782 (  1902 PWs)   bands (ev):

    -5.7661  -2.8772   0.0539   1.1584

          k = 0.2907 0.0969 0.4845 (  1913 PWs)   bands (ev):

    -6.4222  -1.6897   0.8611   1.5291

          k =-0.0969 0.8720 0.0969 (  1918 PWs)   bands (ev):

    -5.5300  -3.1599   0.4326   0.6013

          k = 0.8720-0.0969 1.0658 (  1896 PWs)   bands (ev):

    -4.8055  -4.0349  -0.0149   0.3940

          k = 0.6782 0.0969 0.8720 (  1895 PWs)   bands (ev):

    -5.0976  -3.7102  -0.3103   0.7208

          k = 0.4845 0.2907 0.6782 (  1912 PWs)   bands (ev):

    -5.7277  -3.0714   0.4560   1.2040

          k =-0.0969-1.0658 0.0969 (  1903 PWs)   bands (ev):

    -4.8325  -4.0312   0.2675   0.4572

          k =-0.2907-0.8720-0.0969 (  1899 PWs)   bands (ev):

    -5.4437  -3.2768   0.1397   0.6064

          k =-0.0969-0.6782 0.0969 (  1909 PWs)   bands (ev):

    -6.1115  -2.2337   0.7551   0.8813

          k =-0.2907 0.2907 0.2907 (  1910 PWs)   bands (ev):

    -6.5741  -1.4377   1.7032   1.7032

          k =-0.4845 0.4845 0.0969 (  1904 PWs)   bands (ev):

    -6.1526  -2.2680   0.4120   1.5723

          k = 0.4845-0.4845 1.0658 (  1904 PWs)   bands (ev):

    -5.4546  -3.3039  -0.2223   1.1019

          k = 0.2907-0.2907 0.8720 (  1903 PWs)   bands (ev):

    -5.4078  -3.3671   0.0212   0.8150

          k =-0.2907 0.6782 0.2907 (  1905 PWs)   bands (ev):

    -5.8973  -2.7406   0.5555   1.0521

          k = 0.6782-0.2907 1.2596 (  1894 PWs)   bands (ev):

    -5.2882  -3.4790  -0.1490   0.6332

          k = 0.4845-0.0969 1.0658 (  1901 PWs)   bands (ev):

    -4.7770  -4.0403  -0.1902   0.2587

          k =-0.2907-1.2596 0.2907 (  1894 PWs)   bands (ev):

    -4.9190  -3.9122  -0.2681   0.6900

          k =-0.4845 0.4845 0.4845 (  1904 PWs)   bands (ev):

    -5.8836  -2.9810   1.4240   1.4240

          k = 0.4845-0.4845 1.4534 (  1906 PWs)   bands (ev):

    -5.5304  -3.3323   0.2153   1.1732

     highest occupied level (ev):     2.1046

!    total energy              =     -15.62592248 Ry
     estimated scf accuracy    <          4.9E-11 Ry

     The total energy is the sum of the following terms:
     one-electron contribution =       1.50422067 Ry
     hartree contribution      =       1.56223165 Ry
     xc contribution           =      -4.37645367 Ry
     ewald contribution        =     -14.31592112 Ry

     convergence has been achieved in  11 iterations

     Forces acting on atoms (cartesian axes, Ry/au):

     atom    1 type  1   force =    -0.00000000    0.00000000   -0.00000000
     atom    2 type  1   force =     0.00000000   -0.00000000    0.00000000

     Total force =     0.000000     Total SCF correction =     0.000000


     Computing stress (Cartesian axis) and pressure

          total   stress  (Ry/bohr**3)                   (kbar)     P=     -137.22
  -0.00093283   0.00000000   0.00000000         -137.22        0.00        0.00
  -0.00000000  -0.00093283  -0.00000000           -0.00     -137.22       -0.00
   0.00000000   0.00000000  -0.00093283            0.00        0.00     -137.22

     Energy error            =      2.9E-02
     Gradient error          =      0.0E+00
     Cell gradient error     =      9.3E-04


     number of scf cycles    =   7
     number of bfgs steps    =   6

     enthalpy old            =     -15.5973000899 Ry
     enthalpy new            =     -15.6259224764 Ry

     CASE: enthalpy_new < enthalpy_old


     WARNING: bfgs curvature condition failed, Theta= 0.814
     new trust radius        =       0.1453531665 bohr
ibrav =      2
 celldm(1) =     11.62208321
Input lattice vectors:
    -0.41507440     0.00000000     0.41507440
    -0.00000000     0.41507440     0.41507440
    -0.41507440     0.41507440    -0.00000000
New lattice vectors in INITIAL alat:
    -0.41507440     0.00000000     0.41507440
     0.00000000     0.41507440     0.41507440
    -0.41507440     0.41507440     0.00000000
New lattice vectors in NEW alat (for information only):
    -0.50000000     0.00000000     0.50000000
     0.00000000     0.50000000     0.50000000
    -0.50000000     0.50000000     0.00000000
Discrepancy in bohr =     0.000000    0.000000    0.000000
     new conv_thr            =            1.0E-10 Ry

     new unit-cell volume =    392.45688 a.u.^3 (    58.15611 Ang^3 )
     density =      1.60386 g/cm^3

CELL_PARAMETERS (alat= 14.00000000)
  -0.415074400   0.000000000   0.415074400
   0.000000000   0.415074400   0.415074400
  -0.415074400   0.415074400   0.000000000

ATOMIC_POSITIONS (alat)
Si            0.0000000000        0.0000000000        0.0000000000    0   0   0
Si            0.2075372002        0.2075372002        0.2075372002    0   0   0



     Writing output data file ./tmp/silicon.save/
     NEW-OLD atomic charge density approx. for the potential
     extrapolated charge    7.10356, renormalised to    8.00000

     total cpu time spent up to now is       60.3 secs

     Self-consistent Calculation

     iteration #  1     ecut=    30.00 Ry     beta= 0.70
     Davidson diagonalization with overlap
     ethr =  1.00E-06,  avg # of iterations = 10.2

     total cpu time spent up to now is       61.9 secs

     total energy              =     -15.65627524 Ry
     estimated scf accuracy    <       0.00794645 Ry

     iteration #  2     ecut=    30.00 Ry     beta= 0.70
     Davidson diagonalization with overlap
     ethr =  9.93E-05,  avg # of iterations =  3.0

     total cpu time spent up to now is       62.6 secs

     total energy              =     -15.66720356 Ry
     estimated scf accuracy    <       0.00312410 Ry

     iteration #  3     ecut=    30.00 Ry     beta= 0.70
     Davidson diagonalization with overlap
     ethr =  3.91E-05,  avg # of iterations =  1.1

     total cpu time spent up to now is       63.0 secs

     total energy              =     -15.66697334 Ry
     estimated scf accuracy    <       0.00083412 Ry

     iteration #  4     ecut=    30.00 Ry     beta= 0.70
     Davidson diagonalization with overlap
     ethr =  1.04E-05,  avg # of iterations =  2.0

     total cpu time spent up to now is       63.5 secs

     total energy              =     -15.66707857 Ry
     estimated scf accuracy    <       0.00002399 Ry

     iteration #  5     ecut=    30.00 Ry     beta= 0.70
     Davidson diagonalization with overlap
     ethr =  3.00E-07,  avg # of iterations =  4.1

     total cpu time spent up to now is       64.2 secs

     total energy              =     -15.66708699 Ry
     estimated scf accuracy    <       0.00001173 Ry

     iteration #  6     ecut=    30.00 Ry     beta= 0.70
     Davidson diagonalization with overlap
     ethr =  1.47E-07,  avg # of iterations =  2.2

     total cpu time spent up to now is       64.8 secs

     total energy              =     -15.66708887 Ry
     estimated scf accuracy    <       0.00000152 Ry

     iteration #  7     ecut=    30.00 Ry     beta= 0.70
     Davidson diagonalization with overlap
     ethr =  1.90E-08,  avg # of iterations =  2.4

     total cpu time spent up to now is       65.4 secs

     total energy              =     -15.66708902 Ry
     estimated scf accuracy    <       0.00000016 Ry

     iteration #  8     ecut=    30.00 Ry     beta= 0.70
     Davidson diagonalization with overlap
     ethr =  2.03E-09,  avg # of iterations =  3.1

     total cpu time spent up to now is       65.9 secs

     total energy              =     -15.66708905 Ry
     estimated scf accuracy    <       0.00000004 Ry

     iteration #  9     ecut=    30.00 Ry     beta= 0.70
     Davidson diagonalization with overlap
     ethr =  5.48E-10,  avg # of iterations =  1.8

     total cpu time spent up to now is       66.4 secs

     total energy              =     -15.66708904 Ry
     estimated scf accuracy    <       0.00000002 Ry

     iteration # 10     ecut=    30.00 Ry     beta= 0.70
     Davidson diagonalization with overlap
     ethr =  3.07E-10,  avg # of iterations =  1.7

     total cpu time spent up to now is       66.9 secs

     total energy              =     -15.66708904 Ry
     estimated scf accuracy    <          2.9E-10 Ry

     iteration # 11     ecut=    30.00 Ry     beta= 0.70
     Davidson diagonalization with overlap
     ethr =  3.60E-12,  avg # of iterations =  6.0

     total cpu time spent up to now is       67.8 secs

     End of self-consistent calculation

          k =-0.1004 0.1004 0.1004 (  1898 PWs)   bands (ev):

    -6.7519   1.6659   2.8373   2.8373

          k =-0.3012 0.3012-0.1004 (  1914 PWs)   bands (ev):

    -6.4138  -0.0149   1.9875   2.6570

          k =-0.5019 0.5019-0.3012 (  1904 PWs)   bands (ev):

    -5.6692  -1.9396   1.5548   2.1993

          k = 0.5019-0.5019 0.7027 (  1900 PWs)   bands (ev):

    -5.2427  -2.6840   1.5495   1.9419

          k = 0.3012-0.3012 0.5019 (  1903 PWs)   bands (ev):

    -5.9425  -1.3571   1.9131   2.0178

          k = 0.1004-0.1004 0.3012 (  1907 PWs)   bands (ev):

    -6.5803   0.6969   2.4147   2.4562

          k =-0.1004 0.5019 0.1004 (  1916 PWs)   bands (ev):

    -6.2408  -0.3662   1.8436   1.9048

          k =-0.3012 0.7027-0.1004 (  1909 PWs)   bands (ev):

    -5.6056  -1.7262   0.9688   1.6115

          k = 0.7027-0.3012 0.9035 (  1895 PWs)   bands (ev):

    -4.8929  -2.8436   0.4787   1.4723

          k = 0.5019-0.1004 0.7027 (  1902 PWs)   bands (ev):

    -5.3474  -2.1764   0.5333   1.7832

          k = 0.3012 0.1004 0.5019 (  1913 PWs)   bands (ev):

    -6.0855  -0.8630   1.4430   2.2064

          k =-0.1004 0.9035 0.1004 (  1918 PWs)   bands (ev):

    -5.0927  -2.4514   0.9618   1.1595

          k = 0.9035-0.1004 1.1042 (  1896 PWs)   bands (ev):

    -4.2777  -3.4246   0.4447   0.9186

          k = 0.7027 0.1004 0.9035 (  1895 PWs)   bands (ev):

    -4.5915  -3.0845   0.1099   1.2865

          k = 0.5019 0.3012 0.7027 (  1912 PWs)   bands (ev):

    -5.2973  -2.4500   1.0296   1.8374

          k =-0.1004-1.1042 0.1004 (  1903 PWs)   bands (ev):

    -4.3144  -3.4214   0.7772   1.0011

          k =-0.3012-0.9035-0.1004 (  1899 PWs)   bands (ev):

    -4.9917  -2.5881   0.6257   1.1561

          k =-0.1004-0.7027 0.1004 (  1909 PWs)   bands (ev):

    -5.7409  -1.4246   1.3241   1.4680

          k =-0.3012 0.3012 0.3012 (  1910 PWs)   bands (ev):

    -6.2543  -0.6350   2.3928   2.3928

          k =-0.5019 0.5019 0.1004 (  1904 PWs)   bands (ev):

    -5.7823  -1.5141   0.9384   2.2523

          k = 0.5019-0.5019 1.1042 (  1904 PWs)   bands (ev):

    -4.9935  -2.6488   0.2169   1.7232

          k = 0.3012-0.3012 0.9035 (  1903 PWs)   bands (ev):

    -4.9444  -2.7153   0.5015   1.3998

          k =-0.3012 0.7027 0.3012 (  1905 PWs)   bands (ev):

    -5.4945  -2.0527   1.1331   1.6633

          k = 0.7027-0.3012 1.3050 (  1894 PWs)   bands (ev):

    -4.8104  -2.8229   0.2975   1.1800

          k = 0.5019-0.1004 1.1042 (  1901 PWs)   bands (ev):

    -4.2384  -3.4307   0.2412   0.7521

          k =-0.3012-1.3050 0.3012 (  1894 PWs)   bands (ev):

    -4.3945  -3.3017   0.1537   1.2611

          k =-0.5019 0.5019 0.5019 (  1904 PWs)   bands (ev):

    -5.4695  -2.3951   2.0892   2.0892

          k = 0.5019-0.5019 1.5058 (  1906 PWs)   bands (ev):

    -5.0704  -2.7383   0.7529   1.8045

     highest occupied level (ev):     2.8373

!    total energy              =     -15.66708904 Ry
     estimated scf accuracy    <          8.9E-11 Ry

     The total energy is the sum of the following terms:
     one-electron contribution =       2.17764027 Ry
     hartree contribution      =       1.44692540 Ry
     xc contribution           =      -4.45975803 Ry
     ewald contribution        =     -14.83189668 Ry

     convergence has been achieved in  11 iterations

     Forces acting on atoms (cartesian axes, Ry/au):

     atom    1 type  1   force =     0.00000000    0.00000000    0.00000000
     atom    2 type  1   force =    -0.00000000   -0.00000000   -0.00000000

     Total force =     0.000000     Total SCF correction =     0.000000


     Computing stress (Cartesian axis) and pressure

          total   stress  (Ry/bohr**3)                   (kbar)     P=     -136.45
  -0.00092757  -0.00000000  -0.00000000         -136.45       -0.00       -0.00
  -0.00000000  -0.00092757   0.00000000           -0.00     -136.45        0.00
  -0.00000000   0.00000000  -0.00092757           -0.00        0.00     -136.45

     Energy error            =      4.1E-02
     Gradient error          =      0.0E+00
     Cell gradient error     =      9.3E-04


     number of scf cycles    =   8
     number of bfgs steps    =   7

     enthalpy old            =     -15.6259224764 Ry
     enthalpy new            =     -15.6670890447 Ry

     CASE: enthalpy_new < enthalpy_old

     new trust radius        =       0.2142037448 bohr
ibrav =      2
 celldm(1) =     10.99375715
Input lattice vectors:
    -0.39263418     0.00000000     0.39263418
    -0.00000000     0.39263418     0.39263418
    -0.39263418     0.39263418     0.00000000
New lattice vectors in INITIAL alat:
    -0.39263418     0.00000000     0.39263418
     0.00000000     0.39263418     0.39263418
    -0.39263418     0.39263418     0.00000000
New lattice vectors in NEW alat (for information only):
    -0.50000000     0.00000000     0.50000000
     0.00000000     0.50000000     0.50000000
    -0.50000000     0.50000000     0.00000000
Discrepancy in bohr =     0.000000    0.000000    0.000000
     new conv_thr            =            1.0E-10 Ry

     new unit-cell volume =    332.18378 a.u.^3 (    49.22456 Ang^3 )
     density =      1.89487 g/cm^3

CELL_PARAMETERS (alat= 14.00000000)
  -0.392634184   0.000000000   0.392634184
   0.000000000   0.392634184   0.392634184
  -0.392634184   0.392634184   0.000000000

ATOMIC_POSITIONS (alat)
Si            0.0000000000        0.0000000000        0.0000000000    0   0   0
Si            0.1963170920        0.1963170920        0.1963170920    0   0   0



     Writing output data file ./tmp/silicon.save/
     NEW-OLD atomic charge density approx. for the potential
     extrapolated charge    6.54864, renormalised to    8.00000

     total cpu time spent up to now is       68.9 secs

     Self-consistent Calculation

     iteration #  1     ecut=    30.00 Ry     beta= 0.70
     Davidson diagonalization with overlap
     ethr =  1.00E-06,  avg # of iterations = 10.9

     total cpu time spent up to now is       70.6 secs

     total energy              =     -15.69315147 Ry
     estimated scf accuracy    <       0.02189002 Ry

     iteration #  2     ecut=    30.00 Ry     beta= 0.70
     Davidson diagonalization with overlap
     ethr =  2.74E-04,  avg # of iterations =  3.0

     total cpu time spent up to now is       71.2 secs

     total energy              =     -15.71865821 Ry
     estimated scf accuracy    <       0.00701477 Ry

     iteration #  3     ecut=    30.00 Ry     beta= 0.70
     Davidson diagonalization with overlap
     ethr =  8.77E-05,  avg # of iterations =  1.1

     total cpu time spent up to now is       71.7 secs

     total energy              =     -15.71822722 Ry
     estimated scf accuracy    <       0.00172438 Ry

     iteration #  4     ecut=    30.00 Ry     beta= 0.70
     Davidson diagonalization with overlap
     ethr =  2.16E-05,  avg # of iterations =  2.0

     total cpu time spent up to now is       72.2 secs

     total energy              =     -15.71843831 Ry
     estimated scf accuracy    <       0.00006903 Ry

     iteration #  5     ecut=    30.00 Ry     beta= 0.70
     Davidson diagonalization with overlap
     ethr =  8.63E-07,  avg # of iterations =  3.4

     total cpu time spent up to now is       72.9 secs

     total energy              =     -15.71844972 Ry
     estimated scf accuracy    <       0.00001808 Ry

     iteration #  6     ecut=    30.00 Ry     beta= 0.70
[...]

     iteration #  4     ecut=    30.00 Ry     beta= 0.70
     Davidson diagonalization with overlap
     ethr =  3.13E-11,  avg # of iterations =  2.0

     total cpu time spent up to now is      115.1 secs

     total energy              =     -15.74191051 Ry
     estimated scf accuracy    <          3.5E-10 Ry

     iteration #  5     ecut=    30.00 Ry     beta= 0.70
     Davidson diagonalization with overlap
     ethr =  4.42E-12,  avg # of iterations =  1.1

     total cpu time spent up to now is      115.6 secs

     End of self-consistent calculation

          k =-0.1128 0.1128 0.1128 (  1898 PWs)   bands (ev):

    -5.6729   5.1290   5.8348   5.8348

          k =-0.3383 0.3383-0.1128 (  1914 PWs)   bands (ev):

    -5.2050   3.0816   4.6287   5.6265

          k =-0.5638 0.5638-0.3383 (  1904 PWs)   bands (ev):

    -4.1338   0.3711   4.1698   5.0019

          k = 0.5638-0.5638 0.7893 (  1900 PWs)   bands (ev):

    -3.4509  -0.7495   4.2328   4.6298

          k = 0.3383-0.3383 0.5638 (  1903 PWs)   bands (ev):

    -4.5373   1.2016   4.6910   4.7224

          k = 0.1128-0.1128 0.3383 (  1907 PWs)   bands (ev):

    -5.4366   4.0749   5.2045   5.3843

          k =-0.1128 0.5638 0.1128 (  1916 PWs)   bands (ev):

    -4.9682   2.8903   4.4738   4.4893

          k =-0.3383 0.7893-0.1128 (  1909 PWs)   bands (ev):

    -4.0749   1.0823   3.1855   4.1100

          k = 0.7893-0.3383 1.0148 (  1895 PWs)   bands (ev):

    -2.9823  -0.6307   2.5933   3.8881

          k = 0.5638-0.1128 0.7893 (  1902 PWs)   bands (ev):

    -3.6885   0.4038   2.5560   4.3633

          k = 0.3383 0.1128 0.5638 (  1913 PWs)   bands (ev):

    -4.7470   2.0719   3.8681   5.0155

          k =-0.1128 1.0148 0.1128 (  1918 PWs)   bands (ev):

    -3.3763   0.2652   3.1495   3.4789

          k = 1.0148-0.1128 1.2403 (  1896 PWs)   bands (ev):

    -2.2041  -1.0505   2.3289   3.0842

          k = 0.7893 0.1128 1.0148 (  1895 PWs)   bands (ev):

    -2.5702  -0.7170   1.8556   3.6183

          k = 0.5638 0.3383 0.7893 (  1912 PWs)   bands (ev):

    -3.5795  -0.2610   3.4732   4.4576

          k =-0.1128-1.2403 0.1128 (  1903 PWs)   bands (ev):

    -2.2930  -1.0578   2.8852   3.2672

          k =-0.3383-1.0148-0.1128 (  1899 PWs)   bands (ev):

    -3.2115   0.0467   2.6424   3.4178

          k =-0.1128-0.7893 0.1128 (  1909 PWs)   bands (ev):

    -4.2763   1.6077   3.6830   3.8939

          k =-0.3383 0.3383 0.3383 (  1910 PWs)   bands (ev):

    -4.9798   2.1227   5.2329   5.2329

          k =-0.5638 0.5638 0.1128 (  1904 PWs)   bands (ev):

    -4.3134   1.1995   3.1506   5.0654

          k = 0.5638-0.5638 1.2403 (  1904 PWs)   bands (ev):

    -3.1581  -0.2188   2.0675   4.2965

          k = 0.3383-0.3383 1.0148 (  1903 PWs)   bands (ev):

    -3.1064  -0.2968   2.5348   3.8250

          k =-0.3383 0.7893 0.3383 (  1905 PWs)   bands (ev):

    -3.8977   0.4081   3.6011   4.1910

          k = 0.7893-0.3383 1.4658 (  1894 PWs)   bands (ev):

    -2.9154  -0.3334   2.1659   3.4181

          k = 0.5638-0.1128 1.2403 (  1901 PWs)   bands (ev):

    -2.1010  -1.0583   2.0076   2.7661

          k =-0.3383-1.4658 0.3383 (  1894 PWs)   bands (ev):

    -2.3078  -0.9633   1.8838   3.6341

          k =-0.5638 0.5638 0.5638 (  1904 PWs)   bands (ev):

    -3.8118  -0.3568   4.8499   4.8499

          k = 0.5638-0.5638 1.6914 (  1906 PWs)   bands (ev):

    -3.2196  -0.6563   3.0572   4.4203

     highest occupied level (ev):     5.8348

!    total energy              =     -15.74191051 Ry
     estimated scf accuracy    <          2.3E-11 Ry

     The total energy is the sum of the following terms:
     one-electron contribution =       4.58919429 Ry
     hartree contribution      =       1.11559058 Ry
     xc contribution           =      -4.78654389 Ry
     ewald contribution        =     -16.66015150 Ry

     convergence has been achieved in   5 iterations

     Forces acting on atoms (cartesian axes, Ry/au):

     atom    1 type  1   force =     0.00000000    0.00000000    0.00000000
     atom    2 type  1   force =    -0.00000000   -0.00000000   -0.00000000

     Total force =     0.000000     Total SCF correction =     0.000000


     Computing stress (Cartesian axis) and pressure

          total   stress  (Ry/bohr**3)                   (kbar)     P=       -0.00
  -0.00000003   0.00000000   0.00000000           -0.00        0.00        0.00
  -0.00000000  -0.00000003  -0.00000000           -0.00       -0.00       -0.00
   0.00000000  -0.00000000  -0.00000003            0.00       -0.00       -0.00

     Energy error            =      2.4E-08
     Gradient error          =      0.0E+00
     Cell gradient error     =      3.4E-08

ibrav =      2
 celldm(1) =     10.34669687
Input lattice vectors:
    -0.36952489     0.00000000     0.36952489
     0.00000000     0.36952489     0.36952489
    -0.36952489     0.36952489     0.00000000
New lattice vectors in INITIAL alat:
    -0.36952489     0.00000000     0.36952489
     0.00000000     0.36952489     0.36952489
    -0.36952489     0.36952489     0.00000000
New lattice vectors in NEW alat (for information only):
    -0.50000000     0.00000000     0.50000000
     0.00000000     0.50000000     0.50000000
    -0.50000000     0.50000000     0.00000000
Discrepancy in bohr =     0.000000    0.000000    0.000000

     bfgs converged in  14 scf cycles and  13 bfgs steps
     (criteria: energy <  1.0E-05 Ry, force <  1.0E-04Ry/Bohr, cell <  5.0E-01kbar)

     End of BFGS Geometry Optimization

     Final enthalpy =     -15.7419105139 Ry

     File ./tmp/silicon.bfgs deleted, as requested
Begin final coordinates
     new unit-cell volume =    276.91417 a.u.^3 (    41.03445 Ang^3 )
     density =      2.27307 g/cm^3

CELL_PARAMETERS (alat= 14.00000000)
  -0.369524888   0.000000000   0.369524888
   0.000000000   0.369524888   0.369524888
  -0.369524888   0.369524888   0.000000000

ATOMIC_POSITIONS (alat)
Si            0.0000000000        0.0000000000        0.0000000000    0   0   0
Si            0.1847624442        0.1847624442        0.1847624442    0   0   0
End final coordinates



     Writing output data file ./tmp/silicon.save/

     Final scf calculation at the relaxed structure.
     The G-vectors are recalculated for the final unit cell
     Results may differ from those at the preceding step.

     G-vector sticks info
     --------------------
     sticks:   dense  smooth     PW     G-vecs:    dense   smooth      PW
     Sum         439     439    151                 6183     6183    1243



     bravais-lattice index     =            2
     lattice parameter (alat)  =      14.0000  a.u.
     unit-cell volume          =     276.9142 (a.u.)^3
     number of atoms/cell      =            2
     number of atomic types    =            1
     number of electrons       =         8.00
     number of Kohn-Sham states=            4
     kinetic-energy cutoff     =      30.0000  Ry
     charge density cutoff     =     120.0000  Ry
     scf convergence threshold =      1.0E-10
     mixing beta               =       0.7000
     number of iterations used =            8  plain     mixing
     press convergence thresh. =      5.0E-01
     Exchange-correlation=  SLA  PW   PBE  PBE
                           (   1   4   3   4   0   0   0)

     celldm(1)=  14.000000  celldm(2)=   0.000000  celldm(3)=   0.000000
     celldm(4)=   0.000000  celldm(5)=   0.000000  celldm(6)=   0.000000

     crystal axes: (cart. coord. in units of alat)
               a(1) = (  -0.369525   0.000000   0.369525 )  
               a(2) = (   0.000000   0.369525   0.369525 )  
               a(3) = (  -0.369525   0.369525   0.000000 )  

     reciprocal axes: (cart. coord. in units 2 pi/alat)
               b(1) = ( -1.353089 -1.353089  1.353089 )  
               b(2) = (  1.353089  1.353089  1.353089 )  
               b(3) = ( -1.353089  1.353089 -1.353089 )  


     PseudoPot. # 1 for Si read from file:
     ./Si.pbe-rrkj.UPF
     MD5 check sum: cf7ab5690cd9a85b22c4813f7e365554
     Pseudo is Norm-conserving, Zval =  4.0
     Generated by new atomic code, or converted to UPF format
     Using radial grid of  883 points,  3 beta functions with: 
                l(1) =   0
                l(2) =   0
                l(3) =   1

     atomic species   valence    mass     pseudopotential
        Si             4.00    28.08550     Si( 1.00)

     48 Sym. Ops., with inversion, found (24 have fractional translation)



   Cartesian axes

     site n.     atom                  positions (alat units)
         1           Si  tau(   1) = (   0.0000000   0.0000000   0.0000000  )
         2           Si  tau(   2) = (   0.1847624   0.1847624   0.1847624  )

     number of k points=    28
                       cart. coord. in units 2pi/alat
        k(    1) = (  -0.1127574   0.1127574   0.1127574), wk =   0.0185185
        k(    2) = (  -0.3382722   0.3382722  -0.1127574), wk =   0.0555556
        k(    3) = (  -0.5637870   0.5637870  -0.3382722), wk =   0.0555556
        k(    4) = (   0.5637870  -0.5637870   0.7893018), wk =   0.0555556
        k(    5) = (   0.3382722  -0.3382722   0.5637870), wk =   0.0555556
        k(    6) = (   0.1127574  -0.1127574   0.3382722), wk =   0.0555556
        k(    7) = (  -0.1127574   0.5637870   0.1127574), wk =   0.0555556
        k(    8) = (  -0.3382722   0.7893018  -0.1127574), wk =   0.1111111
        k(    9) = (   0.7893018  -0.3382722   1.0148166), wk =   0.1111111
        k(   10) = (   0.5637870  -0.1127574   0.7893018), wk =   0.1111111
        k(   11) = (   0.3382722   0.1127574   0.5637870), wk =   0.1111111
        k(   12) = (  -0.1127574   1.0148166   0.1127574), wk =   0.0555556
        k(   13) = (   1.0148166  -0.1127574   1.2403314), wk =   0.1111111
        k(   14) = (   0.7893018   0.1127574   1.0148166), wk =   0.1111111
        k(   15) = (   0.5637870   0.3382722   0.7893018), wk =   0.1111111
        k(   16) = (  -0.1127574  -1.2403314   0.1127574), wk =   0.0555556
        k(   17) = (  -0.3382722  -1.0148166  -0.1127574), wk =   0.1111111
        k(   18) = (  -0.1127574  -0.7893018   0.1127574), wk =   0.0555556
        k(   19) = (  -0.3382722   0.3382722   0.3382722), wk =   0.0185185
        k(   20) = (  -0.5637870   0.5637870   0.1127574), wk =   0.0555556
        k(   21) = (   0.5637870  -0.5637870   1.2403314), wk =   0.0555556
        k(   22) = (   0.3382722  -0.3382722   1.0148166), wk =   0.0555556
        k(   23) = (  -0.3382722   0.7893018   0.3382722), wk =   0.0555556
        k(   24) = (   0.7893018  -0.3382722   1.4658462), wk =   0.1111111
        k(   25) = (   0.5637870  -0.1127574   1.2403314), wk =   0.1111111
        k(   26) = (  -0.3382722  -1.4658462   0.3382722), wk =   0.0555556
        k(   27) = (  -0.5637870   0.5637870   0.5637870), wk =   0.0185185
        k(   28) = (   0.5637870  -0.5637870   1.6913610), wk =   0.0555556

     Dense  grid:     6183 G-vectors     FFT dimensions: (  32,  32,  32)

     Estimated max dynamical RAM per process >       6.91 MB

     Initial potential from superposition of free atoms

     starting charge    7.99889, renormalised to    8.00000
     Starting wfcs are    8 randomized atomic wfcs

     total cpu time spent up to now is      117.3 secs

     Self-consistent Calculation

     iteration #  1     ecut=    30.00 Ry     beta= 0.70
     Davidson diagonalization with overlap
     ethr =  1.00E-06,  avg # of iterations = 10.1

     total cpu time spent up to now is      118.0 secs

     total energy              =     -15.73935055 Ry
     estimated scf accuracy    <       0.05674119 Ry

     iteration #  2     ecut=    30.00 Ry     beta= 0.70
     Davidson diagonalization with overlap
     ethr =  7.09E-04,  avg # of iterations =  1.0

     total cpu time spent up to now is      118.2 secs

     total energy              =     -15.74143153 Ry
     estimated scf accuracy    <       0.00262115 Ry

     iteration #  3     ecut=    30.00 Ry     beta= 0.70
     Davidson diagonalization with overlap
     ethr =  3.28E-05,  avg # of iterations =  2.0

     total cpu time spent up to now is      118.4 secs

     total energy              =     -15.74178532 Ry
     estimated scf accuracy    <       0.00003543 Ry

     iteration #  4     ecut=    30.00 Ry     beta= 0.70
     Davidson diagonalization with overlap
     ethr =  4.43E-07,  avg # of iterations =  5.4

     total cpu time spent up to now is      118.7 secs

     total energy              =     -15.74183034 Ry
     estimated scf accuracy    <       0.00000476 Ry

     iteration #  5     ecut=    30.00 Ry     beta= 0.70
     Davidson diagonalization with overlap
     ethr =  5.95E-08,  avg # of iterations =  2.3

     total cpu time spent up to now is      119.0 secs

     total energy              =     -15.74183097 Ry
     estimated scf accuracy    <       0.00000156 Ry

     iteration #  6     ecut=    30.00 Ry     beta= 0.70
     Davidson diagonalization with overlap
     ethr =  1.95E-08,  avg # of iterations =  2.3

     total cpu time spent up to now is      119.2 secs

     total energy              =     -15.74183119 Ry
     estimated scf accuracy    <       0.00000009 Ry

     iteration #  7     ecut=    30.00 Ry     beta= 0.70
     Davidson diagonalization with overlap
     ethr =  1.09E-09,  avg # of iterations =  2.9

     total cpu time spent up to now is      119.5 secs

     total energy              =     -15.74183122 Ry
     estimated scf accuracy    <          5.0E-10 Ry

     iteration #  8     ecut=    30.00 Ry     beta= 0.70
     Davidson diagonalization with overlap
     ethr =  6.21E-12,  avg # of iterations =  5.8

     total cpu time spent up to now is      119.8 secs

     End of self-consistent calculation

          k =-0.1128 0.1128 0.1128 (   752 PWs)   bands (ev):

    -5.6728   5.1292   5.8350   5.8350

          k =-0.3383 0.3383-0.1128 (   774 PWs)   bands (ev):

    -5.2049   3.0818   4.6289   5.6267

          k =-0.5638 0.5638-0.3383 (   769 PWs)   bands (ev):

    -4.1336   0.3712   4.1699   5.0020

          k = 0.5638-0.5638 0.7893 (   771 PWs)   bands (ev):

    -3.4508  -0.7493   4.2330   4.6299

          k = 0.3383-0.3383 0.5638 (   774 PWs)   bands (ev):

    -4.5372   1.2018   4.6911   4.7225

          k = 0.1128-0.1128 0.3383 (   781 PWs)   bands (ev):

    -5.4365   4.0751   5.2047   5.3845

          k =-0.1128 0.5638 0.1128 (   775 PWs)   bands (ev):

    -4.9681   2.8904   4.4740   4.4894

          k =-0.3383 0.7893-0.1128 (   773 PWs)   bands (ev):

    -4.0748   1.0824   3.1856   4.1102

          k = 0.7893-0.3383 1.0148 (   765 PWs)   bands (ev):

    -2.9822  -0.6306   2.5935   3.8882

          k = 0.5638-0.1128 0.7893 (   769 PWs)   bands (ev):

    -3.6883   0.4040   2.5562   4.3634

          k = 0.3383 0.1128 0.5638 (   775 PWs)   bands (ev):

    -4.7469   2.0720   3.8682   5.0156

          k =-0.1128 1.0148 0.1128 (   773 PWs)   bands (ev):

    -3.3762   0.2654   3.1497   3.4791

          k = 1.0148-0.1128 1.2403 (   760 PWs)   bands (ev):

    -2.2039  -1.0504   2.3290   3.0843

          k = 0.7893 0.1128 1.0148 (   763 PWs)   bands (ev):

    -2.5700  -0.7169   1.8558   3.6184

          k = 0.5638 0.3383 0.7893 (   772 PWs)   bands (ev):

    -3.5794  -0.2609   3.4734   4.4578

          k =-0.1128-1.2403 0.1128 (   765 PWs)   bands (ev):

    -2.2929  -1.0577   2.8854   3.2674

          k =-0.3383-1.0148-0.1128 (   767 PWs)   bands (ev):

    -3.2114   0.0468   2.6425   3.4180

          k =-0.1128-0.7893 0.1128 (   771 PWs)   bands (ev):

    -4.2762   1.6078   3.6831   3.8940

          k =-0.3383 0.3383 0.3383 (   778 PWs)   bands (ev):

    -4.9796   2.1228   5.2330   5.2330

          k =-0.5638 0.5638 0.1128 (   775 PWs)   bands (ev):

    -4.3133   1.1996   3.1508   5.0655

          k = 0.5638-0.5638 1.2403 (   769 PWs)   bands (ev):

    -3.1579  -0.2187   2.0677   4.2967

          k = 0.3383-0.3383 1.0148 (   768 PWs)   bands (ev):

    -3.1062  -0.2967   2.5350   3.8251

          k =-0.3383 0.7893 0.3383 (   775 PWs)   bands (ev):

    -3.8976   0.4083   3.6012   4.1911

          k = 0.7893-0.3383 1.4658 (   763 PWs)   bands (ev):

    -2.9153  -0.3332   2.1661   3.4182

          k = 0.5638-0.1128 1.2403 (   757 PWs)   bands (ev):

    -2.1008  -1.0581   2.0077   2.7662

          k =-0.3383-1.4658 0.3383 (   762 PWs)   bands (ev):

    -2.3076  -0.9632   1.8840   3.6342

          k =-0.5638 0.5638 0.5638 (   769 PWs)   bands (ev):

    -3.8117  -0.3567   4.8500   4.8500

          k = 0.5638-0.5638 1.6914 (   768 PWs)   bands (ev):

    -3.2194  -0.6561   3.0573   4.4205

     highest occupied level (ev):     5.8350

!    total energy              =     -15.74183122 Ry
     estimated scf accuracy    <          7.1E-11 Ry

     The total energy is the sum of the following terms:
     one-electron contribution =       4.58933216 Ry
     hartree contribution      =       1.11558081 Ry
     xc contribution           =      -4.78659264 Ry
     ewald contribution        =     -16.66015154 Ry

     convergence has been achieved in   8 iterations

     Forces acting on atoms (cartesian axes, Ry/au):

     atom    1 type  1   force =     0.00000000   -0.00000000    0.00000000
     atom    2 type  1   force =    -0.00000000    0.00000000   -0.00000000

     Total force =     0.000000     Total SCF correction =     0.000000


     Computing stress (Cartesian axis) and pressure

          total   stress  (Ry/bohr**3)                   (kbar)     P=       -0.07
  -0.00000046  -0.00000000  -0.00000000           -0.07       -0.00       -0.00
  -0.00000000  -0.00000046   0.00000000           -0.00       -0.07        0.00
  -0.00000000   0.00000000  -0.00000046           -0.00        0.00       -0.07


     Writing output data file ./tmp/silicon.save/

     init_run     :      1.12s CPU      1.13s WALL (       2 calls)
     electrons    :     96.01s CPU    103.57s WALL (      15 calls)
     update_pot   :      5.87s CPU      5.88s WALL (      13 calls)
     forces       :      2.46s CPU      2.47s WALL (      15 calls)
     stress       :      6.21s CPU      6.27s WALL (      15 calls)

     Called by init_run:
     wfcinit      :      0.48s CPU      0.49s WALL (       2 calls)
     potinit      :      0.24s CPU      0.24s WALL (       2 calls)
     hinit0       :      0.37s CPU      0.37s WALL (       2 calls)

     Called by electrons:
     c_bands      :     79.47s CPU     79.78s WALL (     148 calls)
     sum_band     :     12.49s CPU     12.54s WALL (     148 calls)
     v_of_rho     :      4.04s CPU      4.12s WALL (     160 calls)
     mix_rho      :      0.33s CPU      0.35s WALL (     148 calls)

     Called by c_bands:
     init_us_2    :      2.86s CPU      2.88s WALL (    9184 calls)
     cegterg      :     77.59s CPU     77.89s WALL (    4144 calls)

     Called by *egterg:
     cdiaghg      :      0.45s CPU      0.45s WALL (   17651 calls)
     h_psi        :     74.05s CPU     74.34s WALL (   18155 calls)
     g_psi        :      0.54s CPU      0.55s WALL (   13955 calls)

     Called by h_psi:
     h_psi:calbec :      0.89s CPU      0.89s WALL (   18155 calls)
     vloc_psi     :     72.16s CPU     72.44s WALL (   18155 calls)
     add_vuspsi   :      0.80s CPU      0.81s WALL (   18155 calls)

     General routines
     calbec       :      1.00s CPU      1.01s WALL (   20255 calls)
     fft          :      1.42s CPU      1.43s WALL (    1721 calls)
     ffts         :      0.13s CPU      0.13s WALL (     148 calls)
     fftw         :     75.42s CPU     75.73s WALL (  131576 calls)

     Parallel routines

     PWSCF        :   1m51.83s CPU   2m 0.13s WALL


   This run was terminated on:  22: 8:15  19Sep2022            

=------------------------------------------------------------------------------=
   JOB DONE.
=------------------------------------------------------------------------------=
