
     Program PWSCF v.6.7MaX starts on 20Sep2022 at 16:23:53 

     This program is part of the open-source Quantum ESPRESSO suite
     for quantum simulation of materials; please cite
         "P. Giannozzi et al., J. Phys.:Condens. Matter 21 395502 (2009);
         "P. Giannozzi et al., J. Phys.:Condens. Matter 29 465901 (2017);
          URL http://www.quantum-espresso.org", 
     in publications or presentations arising from this work. More details at
     http://www.quantum-espresso.org/quote

     Parallel version (MPI), running on     1 processors

     MPI processes distributed on     1 nodes
     Waiting for input...
     Reading input from standard input

     Current dimensions of program PWSCF are:
     Max number of different atomic species (ntypx) = 10
     Max number of k-points (npk) =  40000
     Max angular momentum in pseudopotentials (lmaxx) =  3

     Subspace diagonalization in iterative solution of the eigenvalue problem:
     a serial algorithm will be used


     G-vector sticks info
     --------------------
     sticks:   dense  smooth     PW     G-vecs:    dense   smooth      PW
     Sum         817     817    253                15185    15185    2637



     bravais-lattice index     =            2
     lattice parameter (alat)  =      14.0000  a.u.
     unit-cell volume          =     686.0000 (a.u.)^3
     number of atoms/cell      =            2
     number of atomic types    =            1
     number of electrons       =         8.00
     number of Kohn-Sham states=            4
     kinetic-energy cutoff     =      30.0000  Ry
     charge density cutoff     =     120.0000  Ry
     scf convergence threshold =      1.0E-06
     mixing beta               =       0.6000
     number of iterations used =            8  plain     mixing
     energy convergence thresh.=      1.0E-04
     force convergence thresh. =      1.0E-03
     press convergence thresh. =      5.0E-01
     Exchange-correlation=  SLA  PW   PBE  PBE
                           (   1   4   3   4   0   0   0)
     nstep                     =           50


     celldm(1)=  14.000000  celldm(2)=   0.000000  celldm(3)=   0.000000
     celldm(4)=   0.000000  celldm(5)=   0.000000  celldm(6)=   0.000000

     crystal axes: (cart. coord. in units of alat)
               a(1) = (  -0.500000   0.000000   0.500000 )  
               a(2) = (   0.000000   0.500000   0.500000 )  
               a(3) = (  -0.500000   0.500000   0.000000 )  

     reciprocal axes: (cart. coord. in units 2 pi/alat)
               b(1) = ( -1.000000 -1.000000  1.000000 )  
               b(2) = (  1.000000  1.000000  1.000000 )  
               b(3) = ( -1.000000  1.000000 -1.000000 )  


     PseudoPot. # 1 for Si read from file:
     ./Si.pbe-rrkj.UPF
     MD5 check sum: cf7ab5690cd9a85b22c4813f7e365554
     Pseudo is Norm-conserving, Zval =  4.0
     Generated by new atomic code, or converted to UPF format
     Using radial grid of  883 points,  3 beta functions with: 
                l(1) =   0
                l(2) =   0
                l(3) =   1

     atomic species   valence    mass     pseudopotential
        Si             4.00    28.08550     Si( 1.00)

     48 Sym. Ops., with inversion, found (24 have fractional translation)


                                    s                        frac. trans.

      isym =  1     identity                                     

 cryst.   s( 1) = (     1          0          0      )
                  (     0          1          0      )
                  (     0          0          1      )

 cart.    s( 1) = (  1.0000000  0.0000000  0.0000000 )
                  (  0.0000000  1.0000000  0.0000000 )
                  (  0.0000000  0.0000000  1.0000000 )


      isym =  2     180 deg rotation - cart. axis [0,0,1]        

 cryst.   s( 2) = (     0          1         -1      )
                  (     1          0         -1      )
                  (     0          0         -1      )

 cart.    s( 2) = ( -1.0000000  0.0000000  0.0000000 )
                  (  0.0000000 -1.0000000  0.0000000 )
                  (  0.0000000  0.0000000  1.0000000 )


      isym =  3     180 deg rotation - cart. axis [0,1,0]        

 cryst.   s( 3) = (    -1          0          0      )
                  (    -1          0          1      )
                  (    -1          1          0      )

 cart.    s( 3) = ( -1.0000000  0.0000000  0.0000000 )
                  (  0.0000000  1.0000000  0.0000000 )
                  (  0.0000000  0.0000000 -1.0000000 )


      isym =  4     180 deg rotation - cart. axis [1,0,0]        

 cryst.   s( 4) = (     0         -1          1      )
                  (     0         -1          0      )
                  (     1         -1          0      )

 cart.    s( 4) = (  1.0000000  0.0000000  0.0000000 )
                  (  0.0000000 -1.0000000  0.0000000 )
                  (  0.0000000  0.0000000 -1.0000000 )


      isym =  5     180 deg rotation - cart. axis [1,1,0]        

 cryst.   s( 5) = (     0         -1          0      )    f =(  0.2500000 )
                  (    -1          0          0      )       (  0.2500000 )
                  (     0          0         -1      )       (  0.2500000 )

 cart.    s( 5) = (  0.0000000  1.0000000  0.0000000 )    f =( -0.2500000 )
                  (  1.0000000  0.0000000  0.0000000 )       (  0.2500000 )
                  (  0.0000000  0.0000000 -1.0000000 )       (  0.2500000 )


      isym =  6     180 deg rotation - cart. axis [1,-1,0]       

 cryst.   s( 6) = (    -1          0          1      )    f =(  0.2500000 )
                  (     0         -1          1      )       (  0.2500000 )
                  (     0          0          1      )       (  0.2500000 )

 cart.    s( 6) = (  0.0000000 -1.0000000  0.0000000 )    f =( -0.2500000 )
                  ( -1.0000000  0.0000000  0.0000000 )       (  0.2500000 )
                  (  0.0000000  0.0000000 -1.0000000 )       (  0.2500000 )


      isym =  7      90 deg rotation - cart. axis [0,0,-1]       

 cryst.   s( 7) = (     0          1          0      )    f =(  0.2500000 )
                  (     0          1         -1      )       (  0.2500000 )
                  (    -1          1          0      )       (  0.2500000 )

 cart.    s( 7) = (  0.0000000  1.0000000  0.0000000 )    f =( -0.2500000 )
                  ( -1.0000000  0.0000000  0.0000000 )       (  0.2500000 )
                  (  0.0000000  0.0000000  1.0000000 )       (  0.2500000 )


      isym =  8      90 deg rotation - cart. axis [0,0,1]        

 cryst.   s( 8) = (     1          0         -1      )    f =(  0.2500000 )
                  (     1          0          0      )       (  0.2500000 )
                  (     1         -1          0      )       (  0.2500000 )

 cart.    s( 8) = (  0.0000000 -1.0000000  0.0000000 )    f =( -0.2500000 )
                  (  1.0000000  0.0000000  0.0000000 )       (  0.2500000 )
                  (  0.0000000  0.0000000  1.0000000 )       (  0.2500000 )


      isym =  9     180 deg rotation - cart. axis [1,0,1]        

 cryst.   s( 9) = (    -1          0          0      )    f =(  0.2500000 )
                  (     0          0         -1      )       (  0.2500000 )
                  (     0         -1          0      )       (  0.2500000 )

 cart.    s( 9) = (  0.0000000  0.0000000  1.0000000 )    f =( -0.2500000 )
                  (  0.0000000 -1.0000000  0.0000000 )       (  0.2500000 )
                  (  1.0000000  0.0000000  0.0000000 )       (  0.2500000 )


      isym = 10     180 deg rotation - cart. axis [-1,0,1]       

 cryst.   s(10) = (     1          0          0      )    f =(  0.2500000 )
                  (     1         -1          0      )       (  0.2500000 )
                  (     1          0         -1      )       (  0.2500000 )

 cart.    s(10) = (  0.0000000  0.0000000 -1.0000000 )    f =( -0.2500000 )
                  (  0.0000000 -1.0000000  0.0000000 )       (  0.2500000 )
                  ( -1.0000000  0.0000000  0.0000000 )       (  0.2500000 )


      isym = 11      90 deg rotation - cart. axis [0,1,0]        

 cryst.   s(11) = (     0          1         -1      )    f =(  0.2500000 )
                  (    -1          1          0      )       (  0.2500000 )
                  (     0          1          0      )       (  0.2500000 )

 cart.    s(11) = (  0.0000000  0.0000000  1.0000000 )    f =( -0.2500000 )
                  (  0.0000000  1.0000000  0.0000000 )       (  0.2500000 )
                  ( -1.0000000  0.0000000  0.0000000 )       (  0.2500000 )


      isym = 12      90 deg rotation - cart. axis [0,-1,0]       

 cryst.   s(12) = (     0         -1          1      )    f =(  0.2500000 )
                  (     0          0          1      )       (  0.2500000 )
                  (    -1          0          1      )       (  0.2500000 )

 cart.    s(12) = (  0.0000000  0.0000000 -1.0000000 )    f =( -0.2500000 )
                  (  0.0000000  1.0000000  0.0000000 )       (  0.2500000 )
                  (  1.0000000  0.0000000  0.0000000 )       (  0.2500000 )


      isym = 13     180 deg rotation - cart. axis [0,1,1]        

 cryst.   s(13) = (    -1          1          0      )    f =(  0.2500000 )
                  (     0          1          0      )       (  0.2500000 )
                  (     0          1         -1      )       (  0.2500000 )

 cart.    s(13) = ( -1.0000000  0.0000000  0.0000000 )    f =( -0.2500000 )
                  (  0.0000000  0.0000000  1.0000000 )       (  0.2500000 )
                  (  0.0000000  1.0000000  0.0000000 )       (  0.2500000 )


      isym = 14     180 deg rotation - cart. axis [0,1,-1]       

 cryst.   s(14) = (     0          0         -1      )    f =(  0.2500000 )
                  (     0         -1          0      )       (  0.2500000 )
                  (    -1          0          0      )       (  0.2500000 )

 cart.    s(14) = ( -1.0000000  0.0000000  0.0000000 )    f =( -0.2500000 )
                  (  0.0000000  0.0000000 -1.0000000 )       (  0.2500000 )
                  (  0.0000000 -1.0000000  0.0000000 )       (  0.2500000 )


      isym = 15      90 deg rotation - cart. axis [-1,0,0]       

 cryst.   s(15) = (     0          0          1      )    f =(  0.2500000 )
                  (    -1          0          1      )       (  0.2500000 )
                  (     0         -1          1      )       (  0.2500000 )

 cart.    s(15) = (  1.0000000  0.0000000  0.0000000 )    f =( -0.2500000 )
                  (  0.0000000  0.0000000  1.0000000 )       (  0.2500000 )
                  (  0.0000000 -1.0000000  0.0000000 )       (  0.2500000 )


      isym = 16      90 deg rotation - cart. axis [1,0,0]        

 cryst.   s(16) = (     1         -1          0      )    f =(  0.2500000 )
                  (     1          0         -1      )       (  0.2500000 )
                  (     1          0          0      )       (  0.2500000 )

 cart.    s(16) = (  1.0000000  0.0000000  0.0000000 )    f =( -0.2500000 )
                  (  0.0000000  0.0000000 -1.0000000 )       (  0.2500000 )
                  (  0.0000000  1.0000000  0.0000000 )       (  0.2500000 )


      isym = 17     120 deg rotation - cart. axis [-1,-1,-1]     

 cryst.   s(17) = (    -1          0          1      )
                  (    -1          1          0      )
                  (    -1          0          0      )

 cart.    s(17) = (  0.0000000  1.0000000  0.0000000 )
                  (  0.0000000  0.0000000  1.0000000 )
                  (  1.0000000  0.0000000  0.0000000 )


      isym = 18     120 deg rotation - cart. axis [-1,1,1]       

 cryst.   s(18) = (     0          1          0      )
                  (     0          0          1      )
                  (     1          0          0      )

 cart.    s(18) = (  0.0000000 -1.0000000  0.0000000 )
                  (  0.0000000  0.0000000  1.0000000 )
                  ( -1.0000000  0.0000000  0.0000000 )


      isym = 19     120 deg rotation - cart. axis [1,1,-1]       

 cryst.   s(19) = (     1          0         -1      )
                  (     0          0         -1      )
                  (     0          1         -1      )

 cart.    s(19) = (  0.0000000  1.0000000  0.0000000 )
                  (  0.0000000  0.0000000 -1.0000000 )
                  ( -1.0000000  0.0000000  0.0000000 )


      isym = 20     120 deg rotation - cart. axis [1,-1,1]       

 cryst.   s(20) = (     0         -1          0      )
                  (     1         -1          0      )
                  (     0         -1          1      )

 cart.    s(20) = (  0.0000000 -1.0000000  0.0000000 )
                  (  0.0000000  0.0000000 -1.0000000 )
                  (  1.0000000  0.0000000  0.0000000 )


      isym = 21     120 deg rotation - cart. axis [1,1,1]        

 cryst.   s(21) = (     0          0         -1      )
                  (     0          1         -1      )
                  (     1          0         -1      )

 cart.    s(21) = (  0.0000000  0.0000000  1.0000000 )
                  (  1.0000000  0.0000000  0.0000000 )
                  (  0.0000000  1.0000000  0.0000000 )


      isym = 22     120 deg rotation - cart. axis [-1,1,-1]      

 cryst.   s(22) = (    -1          1          0      )
                  (    -1          0          0      )
                  (    -1          0          1      )

 cart.    s(22) = (  0.0000000  0.0000000  1.0000000 )
                  ( -1.0000000  0.0000000  0.0000000 )
                  (  0.0000000 -1.0000000  0.0000000 )


      isym = 23     120 deg rotation - cart. axis [1,-1,-1]      

 cryst.   s(23) = (     0          0          1      )
                  (     1          0          0      )
                  (     0          1          0      )

 cart.    s(23) = (  0.0000000  0.0000000 -1.0000000 )
                  ( -1.0000000  0.0000000  0.0000000 )
                  (  0.0000000  1.0000000  0.0000000 )


      isym = 24     120 deg rotation - cart. axis [-1,-1,1]      

 cryst.   s(24) = (     1         -1          0      )
                  (     0         -1          1      )
                  (     0         -1          0      )

 cart.    s(24) = (  0.0000000  0.0000000 -1.0000000 )
                  (  1.0000000  0.0000000  0.0000000 )
                  (  0.0000000 -1.0000000  0.0000000 )


      isym = 25     inversion                                    

 cryst.   s(25) = (    -1          0          0      )    f =(  0.2500000 )
                  (     0         -1          0      )       (  0.2500000 )
                  (     0          0         -1      )       (  0.2500000 )

 cart.    s(25) = ( -1.0000000  0.0000000  0.0000000 )    f =( -0.2500000 )
                  (  0.0000000 -1.0000000  0.0000000 )       (  0.2500000 )
                  (  0.0000000  0.0000000 -1.0000000 )       (  0.2500000 )


      isym = 26     inv. 180 deg rotation - cart. axis [0,0,1]   

 cryst.   s(26) = (     0         -1          1      )    f =(  0.2500000 )
                  (    -1          0          1      )       (  0.2500000 )
                  (     0          0          1      )       (  0.2500000 )

 cart.    s(26) = (  1.0000000  0.0000000  0.0000000 )    f =( -0.2500000 )
                  (  0.0000000  1.0000000  0.0000000 )       (  0.2500000 )
                  (  0.0000000  0.0000000 -1.0000000 )       (  0.2500000 )


      isym = 27     inv. 180 deg rotation - cart. axis [0,1,0]   

 cryst.   s(27) = (     1          0          0      )    f =(  0.2500000 )
                  (     1          0         -1      )       (  0.2500000 )
                  (     1         -1          0      )       (  0.2500000 )

 cart.    s(27) = (  1.0000000  0.0000000  0.0000000 )    f =( -0.2500000 )
                  (  0.0000000 -1.0000000  0.0000000 )       (  0.2500000 )
                  (  0.0000000  0.0000000  1.0000000 )       (  0.2500000 )


      isym = 28     inv. 180 deg rotation - cart. axis [1,0,0]   

 cryst.   s(28) = (     0          1         -1      )    f =(  0.2500000 )
                  (     0          1          0      )       (  0.2500000 )
                  (    -1          1          0      )       (  0.2500000 )

 cart.    s(28) = ( -1.0000000  0.0000000  0.0000000 )    f =( -0.2500000 )
                  (  0.0000000  1.0000000  0.0000000 )       (  0.2500000 )
                  (  0.0000000  0.0000000  1.0000000 )       (  0.2500000 )


      isym = 29     inv. 180 deg rotation - cart. axis [1,1,0]   

 cryst.   s(29) = (     0          1          0      )
                  (     1          0          0      )
                  (     0          0          1      )

 cart.    s(29) = (  0.0000000 -1.0000000  0.0000000 )
                  ( -1.0000000  0.0000000  0.0000000 )
                  (  0.0000000  0.0000000  1.0000000 )


      isym = 30     inv. 180 deg rotation - cart. axis [1,-1,0]  

 cryst.   s(30) = (     1          0         -1      )
                  (     0          1         -1      )
                  (     0          0         -1      )

 cart.    s(30) = (  0.0000000  1.0000000  0.0000000 )
                  (  1.0000000  0.0000000  0.0000000 )
                  (  0.0000000  0.0000000  1.0000000 )


      isym = 31     inv.  90 deg rotation - cart. axis [0,0,-1]  

 cryst.   s(31) = (     0         -1          0      )
                  (     0         -1          1      )
                  (     1         -1          0      )

 cart.    s(31) = (  0.0000000 -1.0000000  0.0000000 )
                  (  1.0000000  0.0000000  0.0000000 )
                  (  0.0000000  0.0000000 -1.0000000 )


      isym = 32     inv.  90 deg rotation - cart. axis [0,0,1]   

 cryst.   s(32) = (    -1          0          1      )
                  (    -1          0          0      )
                  (    -1          1          0      )

 cart.    s(32) = (  0.0000000  1.0000000  0.0000000 )
                  ( -1.0000000  0.0000000  0.0000000 )
                  (  0.0000000  0.0000000 -1.0000000 )


      isym = 33     inv. 180 deg rotation - cart. axis [1,0,1]   

 cryst.   s(33) = (     1          0          0      )
                  (     0          0          1      )
                  (     0          1          0      )

 cart.    s(33) = (  0.0000000  0.0000000 -1.0000000 )
                  (  0.0000000  1.0000000  0.0000000 )
                  ( -1.0000000  0.0000000  0.0000000 )


      isym = 34     inv. 180 deg rotation - cart. axis [-1,0,1]  

 cryst.   s(34) = (    -1          0          0      )
                  (    -1          1          0      )
                  (    -1          0          1      )

 cart.    s(34) = (  0.0000000  0.0000000  1.0000000 )
                  (  0.0000000  1.0000000  0.0000000 )
                  (  1.0000000  0.0000000  0.0000000 )


      isym = 35     inv.  90 deg rotation - cart. axis [0,1,0]   

 cryst.   s(35) = (     0         -1          1      )
                  (     1         -1          0      )
                  (     0         -1          0      )

 cart.    s(35) = (  0.0000000  0.0000000 -1.0000000 )
                  (  0.0000000 -1.0000000  0.0000000 )
                  (  1.0000000  0.0000000  0.0000000 )


      isym = 36     inv.  90 deg rotation - cart. axis [0,-1,0]  

 cryst.   s(36) = (     0          1         -1      )
                  (     0          0         -1      )
                  (     1          0         -1      )

 cart.    s(36) = (  0.0000000  0.0000000  1.0000000 )
                  (  0.0000000 -1.0000000  0.0000000 )
                  ( -1.0000000  0.0000000  0.0000000 )


      isym = 37     inv. 180 deg rotation - cart. axis [0,1,1]   

 cryst.   s(37) = (     1         -1          0      )
                  (     0         -1          0      )
                  (     0         -1          1      )

 cart.    s(37) = (  1.0000000  0.0000000  0.0000000 )
                  (  0.0000000  0.0000000 -1.0000000 )
                  (  0.0000000 -1.0000000  0.0000000 )


      isym = 38     inv. 180 deg rotation - cart. axis [0,1,-1]  

 cryst.   s(38) = (     0          0          1      )
                  (     0          1          0      )
                  (     1          0          0      )

 cart.    s(38) = (  1.0000000  0.0000000  0.0000000 )
                  (  0.0000000  0.0000000  1.0000000 )
                  (  0.0000000  1.0000000  0.0000000 )


      isym = 39     inv.  90 deg rotation - cart. axis [-1,0,0]  

 cryst.   s(39) = (     0          0         -1      )
                  (     1          0         -1      )
                  (     0          1         -1      )

 cart.    s(39) = ( -1.0000000  0.0000000  0.0000000 )
                  (  0.0000000  0.0000000 -1.0000000 )
                  (  0.0000000  1.0000000  0.0000000 )


      isym = 40     inv.  90 deg rotation - cart. axis [1,0,0]   

 cryst.   s(40) = (    -1          1          0      )
                  (    -1          0          1      )
                  (    -1          0          0      )

 cart.    s(40) = ( -1.0000000  0.0000000  0.0000000 )
                  (  0.0000000  0.0000000  1.0000000 )
                  (  0.0000000 -1.0000000  0.0000000 )


      isym = 41     inv. 120 deg rotation - cart. axis [-1,-1,-1]

 cryst.   s(41) = (     1          0         -1      )    f =(  0.2500000 )
                  (     1         -1          0      )       (  0.2500000 )
                  (     1          0          0      )       (  0.2500000 )

 cart.    s(41) = (  0.0000000 -1.0000000  0.0000000 )    f =( -0.2500000 )
                  (  0.0000000  0.0000000 -1.0000000 )       (  0.2500000 )
                  ( -1.0000000  0.0000000  0.0000000 )       (  0.2500000 )


      isym = 42     inv. 120 deg rotation - cart. axis [-1,1,1]  

 cryst.   s(42) = (     0         -1          0      )    f =(  0.2500000 )
                  (     0          0         -1      )       (  0.2500000 )
                  (    -1          0          0      )       (  0.2500000 )

 cart.    s(42) = (  0.0000000  1.0000000  0.0000000 )    f =( -0.2500000 )
                  (  0.0000000  0.0000000 -1.0000000 )       (  0.2500000 )
                  (  1.0000000  0.0000000  0.0000000 )       (  0.2500000 )


      isym = 43     inv. 120 deg rotation - cart. axis [1,1,-1]  

 cryst.   s(43) = (    -1          0          1      )    f =(  0.2500000 )
                  (     0          0          1      )       (  0.2500000 )
                  (     0         -1          1      )       (  0.2500000 )

 cart.    s(43) = (  0.0000000 -1.0000000  0.0000000 )    f =( -0.2500000 )
                  (  0.0000000  0.0000000  1.0000000 )       (  0.2500000 )
                  (  1.0000000  0.0000000  0.0000000 )       (  0.2500000 )


      isym = 44     inv. 120 deg rotation - cart. axis [1,-1,1]  

 cryst.   s(44) = (     0          1          0      )    f =(  0.2500000 )
                  (    -1          1          0      )       (  0.2500000 )
                  (     0          1         -1      )       (  0.2500000 )

 cart.    s(44) = (  0.0000000  1.0000000  0.0000000 )    f =( -0.2500000 )
                  (  0.0000000  0.0000000  1.0000000 )       (  0.2500000 )
                  ( -1.0000000  0.0000000  0.0000000 )       (  0.2500000 )


      isym = 45     inv. 120 deg rotation - cart. axis [1,1,1]   

 cryst.   s(45) = (     0          0          1      )    f =(  0.2500000 )
                  (     0         -1          1      )       (  0.2500000 )
                  (    -1          0          1      )       (  0.2500000 )

 cart.    s(45) = (  0.0000000  0.0000000 -1.0000000 )    f =( -0.2500000 )
                  ( -1.0000000  0.0000000  0.0000000 )       (  0.2500000 )
                  (  0.0000000 -1.0000000  0.0000000 )       (  0.2500000 )


      isym = 46     inv. 120 deg rotation - cart. axis [-1,1,-1] 

 cryst.   s(46) = (     1         -1          0      )    f =(  0.2500000 )
                  (     1          0          0      )       (  0.2500000 )
                  (     1          0         -1      )       (  0.2500000 )

 cart.    s(46) = (  0.0000000  0.0000000 -1.0000000 )    f =( -0.2500000 )
                  (  1.0000000  0.0000000  0.0000000 )       (  0.2500000 )
                  (  0.0000000  1.0000000  0.0000000 )       (  0.2500000 )


      isym = 47     inv. 120 deg rotation - cart. axis [1,-1,-1] 

 cryst.   s(47) = (     0          0         -1      )    f =(  0.2500000 )
                  (    -1          0          0      )       (  0.2500000 )
                  (     0         -1          0      )       (  0.2500000 )

 cart.    s(47) = (  0.0000000  0.0000000  1.0000000 )    f =( -0.2500000 )
                  (  1.0000000  0.0000000  0.0000000 )       (  0.2500000 )
                  (  0.0000000 -1.0000000  0.0000000 )       (  0.2500000 )


      isym = 48     inv. 120 deg rotation - cart. axis [-1,-1,1] 

 cryst.   s(48) = (    -1          1          0      )    f =(  0.2500000 )
                  (     0          1         -1      )       (  0.2500000 )
                  (     0          1          0      )       (  0.2500000 )

 cart.    s(48) = (  0.0000000  0.0000000  1.0000000 )    f =( -0.2500000 )
                  ( -1.0000000  0.0000000  0.0000000 )       (  0.2500000 )
                  (  0.0000000  1.0000000  0.0000000 )       (  0.2500000 )


     point group O_h (m-3m) 
     there are 10 classes
     the character table:

       E     8C3   3C2   6C4   6C2'  i     8S6   3s_h  6S4   6s_d 
A_1g   1.00  1.00  1.00  1.00  1.00  1.00  1.00  1.00  1.00  1.00
A_2g   1.00  1.00  1.00 -1.00 -1.00  1.00  1.00  1.00 -1.00 -1.00
E_g    2.00 -1.00  2.00  0.00  0.00  2.00 -1.00  2.00  0.00  0.00
T_1g   3.00  0.00 -1.00  1.00 -1.00  3.00  0.00 -1.00  1.00 -1.00
T_2g   3.00  0.00 -1.00 -1.00  1.00  3.00  0.00 -1.00 -1.00  1.00
A_1u   1.00  1.00  1.00  1.00  1.00 -1.00 -1.00 -1.00 -1.00 -1.00
A_2u   1.00  1.00  1.00 -1.00 -1.00 -1.00 -1.00 -1.00  1.00  1.00
E_u    2.00 -1.00  2.00  0.00  0.00 -2.00  1.00 -2.00  0.00  0.00
T_1u   3.00  0.00 -1.00  1.00 -1.00 -3.00  0.00  1.00 -1.00  1.00
T_2u   3.00  0.00 -1.00 -1.00  1.00 -3.00  0.00  1.00  1.00 -1.00

     the symmetry operations in each class and the name of the first element:

     E        1
          identity                                               
     8C3     17   19   20   18   24   21   22   23
          120 deg rotation - cart. axis [-1,-1,-1]               
     3C2      2    4    3
          180 deg rotation - cart. axis [0,0,1]                  
     6C4      7    8   15   16   12   11
           90 deg rotation - cart. axis [0,0,-1]                 
     6C2'     5    6   14   13   10    9
          180 deg rotation - cart. axis [1,1,0]                  
     i       25
          inversion                                              
     8S6     41   43   44   42   48   45   46   47
          inv. 120 deg rotation - cart. axis [-1,-1,-1]          
     3s_h    26   28   27
          inv. 180 deg rotation - cart. axis [0,0,1]             
     6S4     31   32   39   40   36   35
          inv.  90 deg rotation - cart. axis [0,0,-1]            
     6s_d    29   30   38   37   34   33
          inv. 180 deg rotation - cart. axis [1,1,0]             

   Cartesian axes

     site n.     atom                  positions (alat units)
         1           Si  tau(   1) = (   0.0000000   0.0000000   0.0000000  )
         2           Si  tau(   2) = (   0.2500000   0.2500000   0.2500000  )

   Crystallographic axes

     site n.     atom                  positions (cryst. coord.)
         1           Si  tau(   1) = (  0.0000000  0.0000000  0.0000000  )
         2           Si  tau(   2) = ( -0.2500000  0.7500000 -0.2500000  )

     number of k points=    16
                       cart. coord. in units 2pi/alat
        k(    1) = (   0.0000000   0.0000000   0.0000000), wk =   0.0092593
        k(    2) = (  -0.1666667   0.1666667  -0.1666667), wk =   0.0740741
        k(    3) = (  -0.3333333   0.3333333  -0.3333333), wk =   0.0740741
        k(    4) = (   0.5000000  -0.5000000   0.5000000), wk =   0.0370370
        k(    5) = (   0.0000000   0.3333333   0.0000000), wk =   0.0555556
        k(    6) = (  -0.1666667   0.5000000  -0.1666667), wk =   0.2222222
        k(    7) = (   0.6666667  -0.3333333   0.6666667), wk =   0.2222222
        k(    8) = (   0.5000000  -0.1666667   0.5000000), wk =   0.2222222
        k(    9) = (   0.3333333   0.0000000   0.3333333), wk =   0.1111111
        k(   10) = (   0.0000000   0.6666667   0.0000000), wk =   0.0555556
        k(   11) = (   0.8333333  -0.1666667   0.8333333), wk =   0.2222222
        k(   12) = (   0.6666667  -0.0000000   0.6666667), wk =   0.1111111
        k(   13) = (   0.0000000  -1.0000000   0.0000000), wk =   0.0277778
        k(   14) = (   0.6666667  -0.3333333   1.0000000), wk =   0.2222222
        k(   15) = (   0.5000000  -0.1666667   0.8333333), wk =   0.2222222
        k(   16) = (  -0.3333333  -1.0000000   0.0000000), wk =   0.1111111

                       cryst. coord.
        k(    1) = (   0.0000000   0.0000000   0.0000000), wk =   0.0092593
        k(    2) = (   0.0000000   0.0000000   0.1666667), wk =   0.0740741
        k(    3) = (   0.0000000   0.0000000   0.3333333), wk =   0.0740741
        k(    4) = (   0.0000000   0.0000000  -0.5000000), wk =   0.0370370
        k(    5) = (   0.0000000   0.1666667   0.1666667), wk =   0.0555556
        k(    6) = (   0.0000000   0.1666667   0.3333333), wk =   0.2222222
        k(    7) = (   0.0000000   0.1666667  -0.5000000), wk =   0.2222222
        k(    8) = (   0.0000000   0.1666667  -0.3333333), wk =   0.2222222
        k(    9) = (   0.0000000   0.1666667  -0.1666667), wk =   0.1111111
        k(   10) = (   0.0000000   0.3333333   0.3333333), wk =   0.0555556
        k(   11) = (   0.0000000   0.3333333  -0.5000000), wk =   0.2222222
        k(   12) = (   0.0000000   0.3333333  -0.3333333), wk =   0.1111111
        k(   13) = (   0.0000000  -0.5000000  -0.5000000), wk =   0.0277778
        k(   14) = (   0.1666667   0.3333333  -0.5000000), wk =   0.2222222
        k(   15) = (   0.1666667   0.3333333  -0.3333333), wk =   0.2222222
        k(   16) = (   0.1666667  -0.5000000  -0.3333333), wk =   0.1111111

     Dense  grid:    15185 G-vectors     FFT dimensions: (  36,  36,  36)

     Dynamical RAM for                 wfc:       0.12 MB

     Dynamical RAM for     wfc (w. buffer):       1.98 MB

     Dynamical RAM for           str. fact:       0.23 MB

     Dynamical RAM for           local pot:       0.00 MB

     Dynamical RAM for          nlocal pot:       0.29 MB

     Dynamical RAM for                qrad:       0.30 MB

     Dynamical RAM for          rho,v,vnew:       1.76 MB

     Dynamical RAM for               rhoin:       0.59 MB

     Dynamical RAM for            rho*nmix:       3.71 MB

     Dynamical RAM for           G-vectors:       0.98 MB

     Dynamical RAM for          h,s,v(r/c):       0.00 MB

     Dynamical RAM for          <psi|beta>:       0.00 MB

     Dynamical RAM for                 psi:       0.23 MB

     Dynamical RAM for                hpsi:       0.23 MB

     Dynamical RAM for      wfcinit/wfcrot:       0.47 MB

     Estimated static dynamical RAM per process >      12.09 MB

     Estimated max dynamical RAM per process >      12.55 MB

     Initial potential from superposition of free atoms

     starting charge    7.99889, renormalised to    8.00000
     Starting wfcs are    8 randomized atomic wfcs

     total cpu time spent up to now is        0.6 secs

     Self-consistent Calculation

     iteration #  1     ecut=    30.00 Ry     beta= 0.60
     Davidson diagonalization with overlap
     ethr =  1.00E-02,  avg # of iterations =  1.0

     Threshold (ethr) on eigenvalues was too large:
     Diagonalizing with lowered threshold

     Davidson diagonalization with overlap
     ethr =  1.38E-04,  avg # of iterations =  2.7

     total cpu time spent up to now is        1.3 secs

     total energy              =     -15.42858307 Ry
     estimated scf accuracy    <       0.01263542 Ry

     iteration #  2     ecut=    30.00 Ry     beta= 0.60
     Davidson diagonalization with overlap
     ethr =  1.58E-04,  avg # of iterations =  1.0

     total cpu time spent up to now is        1.5 secs

     total energy              =     -15.42900654 Ry
     estimated scf accuracy    <       0.00214006 Ry

     iteration #  3     ecut=    30.00 Ry     beta= 0.60
     Davidson diagonalization with overlap
     ethr =  2.68E-05,  avg # of iterations =  1.4

     total cpu time spent up to now is        1.8 secs

     total energy              =     -15.42914607 Ry
     estimated scf accuracy    <       0.00001268 Ry

     iteration #  4     ecut=    30.00 Ry     beta= 0.60
     Davidson diagonalization with overlap
     c_bands:  1 eigenvalues not converged
     c_bands:  1 eigenvalues not converged
     c_bands:  1 eigenvalues not converged
     ethr =  1.58E-07,  avg # of iterations =  9.2

     total cpu time spent up to now is        2.6 secs

     total energy              =     -15.42919251 Ry
     estimated scf accuracy    <       0.00000621 Ry

     iteration #  5     ecut=    30.00 Ry     beta= 0.60
     Davidson diagonalization with overlap
     ethr =  7.76E-08,  avg # of iterations =  3.1

     total cpu time spent up to now is        2.9 secs

     End of self-consistent calculation

          k = 0.0000 0.0000 0.0000 (  1917 PWs)   bands (ev):

    -7.9847  -3.9485  -0.2192  -0.2192

     occupation numbers 
     1.0000   1.0000   1.0000   1.0000

          k =-0.1667 0.1667-0.1667 (  1913 PWs)   bands (ev):

    -7.8475  -4.3331  -0.3832  -0.3832

     occupation numbers 
     1.0000   1.0000   1.0000   1.0000

          k =-0.3333 0.3333-0.3333 (  1898 PWs)   bands (ev):

    -7.4911  -5.0968  -0.6267  -0.6266

     occupation numbers 
     1.0000   1.0000   1.0000   1.0000

          k = 0.5000-0.5000 0.5000 (  1916 PWs)   bands (ev):

    -7.2251  -5.5377  -0.7244  -0.7243

     occupation numbers 
     1.0000   1.0000   1.0000   1.0000

          k = 0.0000 0.3333 0.0000 (  1908 PWs)   bands (ev):

    -7.7989  -4.4451  -0.6150  -0.6150

     occupation numbers 
     1.0000   1.0000   1.0000   1.0000

          k =-0.1667 0.5000-0.1667 (  1908 PWs)   bands (ev):

    -7.5001  -5.0578  -1.0212  -0.8523

     occupation numbers 
     1.0000   1.0000   1.0000   1.0000

          k = 0.6667-0.3333 0.6667 (  1905 PWs)   bands (ev):

    -7.1325  -5.6422  -1.3764  -0.9008

     occupation numbers 
     1.0000   1.0000   1.0000   1.0000

          k = 0.5000-0.1667 0.5000 (  1906 PWs)   bands (ev):

    -7.2431  -5.4811  -1.3961  -0.7392

     occupation numbers 
     1.0000   1.0000   1.0000   1.0000

          k = 0.3333 0.0000 0.3333 (  1907 PWs)   bands (ev):

    -7.6298  -4.8166  -1.0204  -0.4708

     occupation numbers 
     1.0000   1.0000   1.0000   1.0000

          k = 0.0000 0.6667 0.0000 (  1932 PWs)   bands (ev):

    -7.2627  -5.4357  -1.1119  -1.1119

     occupation numbers 
     1.0000   1.0000   1.0000   1.0000

          k = 0.8333-0.1667 0.8333 (  1898 PWs)   bands (ev):

    -6.8596  -5.9745  -1.4659  -1.1818

     occupation numbers 
     1.0000   1.0000   1.0000   1.0000

          k = 0.6667-0.0000 0.6667 (  1896 PWs)   bands (ev):

    -6.8462  -5.9886  -1.6909  -1.0233

     occupation numbers 
     1.0000   1.0000   1.0000   1.0000

          k = 0.0000-1.0000 0.0000 (  1868 PWs)   bands (ev):

    -6.4392  -6.4392  -1.2993  -1.2993

     occupation numbers 
     1.0000   1.0000   1.0000   1.0000

          k = 0.6667-0.3333 1.0000 (  1902 PWs)   bands (ev):

    -7.1494  -5.6003  -1.4458  -1.0341

     occupation numbers 
     1.0000   1.0000   1.0000   1.0000

          k = 0.5000-0.1667 0.8333 (  1892 PWs)   bands (ev):

    -6.8461  -5.9890  -1.6159  -1.1683

     occupation numbers 
     1.0000   1.0000   1.0000   1.0000

          k =-0.3333-1.0000 0.0000 (  1892 PWs)   bands (ev):

    -6.4346  -6.4346  -1.4545  -1.4545

     occupation numbers 
     1.0000   1.0000   1.0000   1.0000

     highest occupied level (ev):    -0.2192

!    total energy              =     -15.42919512 Ry
     estimated scf accuracy    <       0.00000040 Ry

     The total energy is the sum of the following terms:
     one-electron contribution =      -1.15047707 Ry
     hartree contribution      =       2.14397108 Ry
     xc contribution           =      -4.11000784 Ry
     ewald contribution        =     -12.31268128 Ry

     convergence has been achieved in   5 iterations

     Forces acting on atoms (cartesian axes, Ry/au):

     atom    1 type  1   force =     0.00000000    0.00000000    0.00000000
     atom    2 type  1   force =     0.00000000    0.00000000    0.00000000
     The non-local contrib.  to forces
     atom    1 type  1   force =     0.00000000    0.00000000   -0.00000000
     atom    2 type  1   force =    -0.00000000   -0.00000000    0.00000000
     The ionic contribution  to forces
     atom    1 type  1   force =    -0.00000000   -0.00000000    0.00000000
     atom    2 type  1   force =    -0.00000000    0.00000000    0.00000000
     The local contribution  to forces
     atom    1 type  1   force =     0.00000000   -0.00000000   -0.00000000
     atom    2 type  1   force =    -0.00000000    0.00000000    0.00000000
     The core correction contribution to forces
     atom    1 type  1   force =     0.00000000    0.00000000    0.00000000
     atom    2 type  1   force =     0.00000000    0.00000000    0.00000000
     The Hubbard contrib.    to forces
     atom    1 type  1   force =     0.00000000    0.00000000    0.00000000
     atom    2 type  1   force =     0.00000000    0.00000000    0.00000000
     The SCF correction term to forces
     atom    1 type  1   force =    -0.00000000    0.00000000   -0.00000000
     atom    2 type  1   force =    -0.00000000   -0.00000000    0.00000000

     Total force =     0.000000     Total SCF correction =     0.000000


     Computing stress (Cartesian axis) and pressure

          total   stress  (Ry/bohr**3)                   (kbar)     P=      -90.79
  -0.00061720   0.00000000   0.00000000          -90.79        0.00        0.00
   0.00000000  -0.00061720  -0.00000000            0.00      -90.79       -0.00
   0.00000000  -0.00000000  -0.00061720            0.00       -0.00      -90.79

     kinetic stress (kbar)    673.18     -0.00     -0.00
                               -0.00    673.18      0.00
                               -0.00      0.00    673.18

     local   stress (kbar)   -666.89      0.00      0.00
                                0.00   -666.89     -0.00
                                0.00     -0.00   -666.89

     nonloc. stress (kbar)    900.45     -0.00     -0.00
                               -0.00    900.45      0.00
                               -0.00     -0.00    900.45

     hartree stress (kbar)    153.25     -0.00     -0.00
                               -0.00    153.25      0.00
                               -0.00      0.00    153.25

     exc-cor stress (kbar)   -270.68     -0.00     -0.00
                               -0.00   -270.68     -0.00
                               -0.00     -0.00   -270.68

     corecor stress (kbar)      0.00      0.00      0.00
                                0.00      0.00      0.00
                                0.00      0.00      0.00

     ewald   stress (kbar)   -880.11      0.00      0.00
                                0.00   -880.11      0.00
                                0.00      0.00   -880.11

     hubbard stress (kbar)      0.00      0.00      0.00
                                0.00      0.00      0.00
                                0.00      0.00      0.00

     DFT-D   stress (kbar)      0.00      0.00      0.00
                                0.00      0.00      0.00
                                0.00      0.00      0.00

     XDM     stress (kbar)      0.00      0.00      0.00
                                0.00      0.00      0.00
                                0.00      0.00      0.00

     dft-nl  stress (kbar)      0.00      0.00      0.00
                                0.00      0.00      0.00
                                0.00      0.00      0.00

     TS-vdW  stress (kbar)      0.00      0.00      0.00
                                0.00      0.00      0.00
                                0.00      0.00      0.00



     BFGS Geometry Optimization
     Energy error            =      0.0E+00
     Gradient error          =      0.0E+00
     Cell gradient error     =      6.2E-04


     number of scf cycles    =   1
     number of bfgs steps    =   0

     enthalpy new            =     -15.4291951168 Ry

     new trust radius        =       0.0808270982 bohr
ibrav =      2
 celldm(1) =     13.78398049
Input lattice vectors:
    -0.49228502    -0.00000000     0.49228502
     0.00000000     0.49228502     0.49228502
    -0.49228502     0.49228502    -0.00000000
New lattice vectors in INITIAL alat:
    -0.49228502     0.00000000     0.49228502
     0.00000000     0.49228502     0.49228502
    -0.49228502     0.49228502     0.00000000
New lattice vectors in NEW alat (for information only):
    -0.50000000     0.00000000     0.50000000
     0.00000000     0.50000000     0.50000000
    -0.50000000     0.50000000     0.00000000
Discrepancy in bohr =     0.000000    0.000000    0.000000
     new conv_thr            =       0.0000010000 Ry

     new unit-cell volume =    654.73259 a.u.^3 (    97.02136 Ang^3 )
     density =      0.96138 g/cm^3

CELL_PARAMETERS (alat= 14.00000000)
  -0.492285018   0.000000000   0.492285018
   0.000000000   0.492285018   0.492285018
  -0.492285018   0.492285018   0.000000000

ATOMIC_POSITIONS (alat)
Si            0.0000000000        0.0000000000        0.0000000000    0   0   0
Si            0.2461425088        0.2461425088        0.2461425088    0   0   0



     Writing output data file ./tmp/silicon.save/
     NEW-OLD atomic charge density approx. for the potential
     extrapolated charge    7.61800, renormalised to    8.00000

     total cpu time spent up to now is        3.9 secs

     Self-consistent Calculation

     iteration #  1     ecut=    30.00 Ry     beta= 0.60
     Davidson diagonalization with overlap
     ethr =  1.00E-06,  avg # of iterations =  7.4

     total cpu time spent up to now is        4.6 secs

     total energy              =     -15.44639127 Ry
     estimated scf accuracy    <       0.00175560 Ry

     iteration #  2     ecut=    30.00 Ry     beta= 0.60
     Davidson diagonalization with overlap
     ethr =  2.19E-05,  avg # of iterations =  2.9

     total cpu time spent up to now is        5.0 secs

     total energy              =     -15.44911007 Ry
     estimated scf accuracy    <       0.00056216 Ry

     iteration #  3     ecut=    30.00 Ry     beta= 0.60
     Davidson diagonalization with overlap
     ethr =  7.03E-06,  avg # of iterations =  1.2

     total cpu time spent up to now is        5.3 secs

     total energy              =     -15.44905545 Ry
     estimated scf accuracy    <       0.00018994 Ry

     iteration #  4     ecut=    30.00 Ry     beta= 0.60
     Davidson diagonalization with overlap
     ethr =  2.37E-06,  avg # of iterations =  2.0

     total cpu time spent up to now is        5.6 secs

     total energy              =     -15.44908770 Ry
     estimated scf accuracy    <       0.00001760 Ry

     iteration #  5     ecut=    30.00 Ry     beta= 0.60
     Davidson diagonalization with overlap
     ethr =  2.20E-07,  avg # of iterations =  2.4

     total cpu time spent up to now is        5.9 secs

     total energy              =     -15.44908766 Ry
     estimated scf accuracy    <       0.00000680 Ry

     iteration #  6     ecut=    30.00 Ry     beta= 0.60
     Davidson diagonalization with overlap
     ethr =  8.50E-08,  avg # of iterations =  3.1

     total cpu time spent up to now is        6.3 secs

     End of self-consistent calculation

          k = 0.0000 0.0000 0.0000 (  1917 PWs)   bands (ev):

    -7.8987  -3.5319  -0.0157  -0.0157

     occupation numbers 
     1.0000   1.0000   1.0000   1.0000

          k =-0.1693 0.1693-0.1693 (  1913 PWs)   bands (ev):

    -7.7531  -3.9719  -0.1894  -0.1894

     occupation numbers 
     1.0000   1.0000   1.0000   1.0000

          k =-0.3386 0.3386-0.3386 (  1898 PWs)   bands (ev):

    -7.3735  -4.8210  -0.4454  -0.4454

     occupation numbers 
     1.0000   1.0000   1.0000   1.0000

          k = 0.5078-0.5078 0.5078 (  1916 PWs)   bands (ev):

    -7.0881  -5.3042  -0.5477  -0.5477

     occupation numbers 
     1.0000   1.0000   1.0000   1.0000

          k = 0.0000 0.3386 0.0000 (  1908 PWs)   bands (ev):

    -7.7016  -4.0953  -0.4364  -0.4364

     occupation numbers 
     1.0000   1.0000   1.0000   1.0000

          k =-0.1693 0.5078-0.1693 (  1908 PWs)   bands (ev):

    -7.3838  -4.7715  -0.8641  -0.6859

     occupation numbers 
     1.0000   1.0000   1.0000   1.0000

          k = 0.6771-0.3386 0.6771 (  1905 PWs)   bands (ev):

    -6.9907  -5.4091  -1.2373  -0.7355

     occupation numbers 
     1.0000   1.0000   1.0000   1.0000

          k = 0.5078-0.1693 0.5078 (  1906 PWs)   bands (ev):

    -7.1092  -5.2340  -1.2613  -0.5641

     occupation numbers 
     1.0000   1.0000   1.0000   1.0000

          k = 0.3386 0.0000 0.3386 (  1907 PWs)   bands (ev):

    -7.5218  -4.5084  -0.8679  -0.2805

     occupation numbers 
     1.0000   1.0000   1.0000   1.0000

          k = 0.0000 0.6771 0.0000 (  1932 PWs)   bands (ev):

    -7.1320  -5.1781  -0.9598  -0.9598

     occupation numbers 
     1.0000   1.0000   1.0000   1.0000

          k = 0.8464-0.1693 0.8464 (  1898 PWs)   bands (ev):

    -6.7022  -5.7581  -1.3378  -1.0327

     occupation numbers 
     1.0000   1.0000   1.0000   1.0000

          k = 0.6771-0.0000 0.6771 (  1896 PWs)   bands (ev):

    -6.6863  -5.7750  -1.5789  -0.8649

     occupation numbers 
     1.0000   1.0000   1.0000   1.0000

          k = 0.0000-1.0157 0.0000 (  1868 PWs)   bands (ev):

    -6.2546  -6.2546  -1.1565  -1.1565

     occupation numbers 
     1.0000   1.0000   1.0000   1.0000

          k = 0.6771-0.3386 1.0157 (  1902 PWs)   bands (ev):

    -7.0104  -5.3574  -1.3174  -0.8784

     occupation numbers 
     1.0000   1.0000   1.0000   1.0000

          k = 0.5078-0.1693 0.8464 (  1892 PWs)   bands (ev):

    -6.6861  -5.7755  -1.4978  -1.0215

     occupation numbers 
     1.0000   1.0000   1.0000   1.0000

          k =-0.3386-1.0157 0.0000 (  1892 PWs)   bands (ev):

    -6.2490  -6.2490  -1.3260  -1.3260

     occupation numbers 
     1.0000   1.0000   1.0000   1.0000

     highest occupied level (ev):    -0.0157

!    total energy              =     -15.44908910 Ry
     estimated scf accuracy    <       0.00000004 Ry

     The total energy is the sum of the following terms:
     one-electron contribution =      -0.89027632 Ry
     hartree contribution      =       2.07869563 Ry
     xc contribution           =      -4.13186551 Ry
     ewald contribution        =     -12.50564290 Ry

     convergence has been achieved in   6 iterations

     Forces acting on atoms (cartesian axes, Ry/au):

     atom    1 type  1   force =     0.00000000    0.00000000    0.00000000
     atom    2 type  1   force =    -0.00000000   -0.00000000   -0.00000000
     The non-local contrib.  to forces
     atom    1 type  1   force =     0.00000000    0.00000000   -0.00000000
     atom    2 type  1   force =     0.00000000    0.00000000    0.00000000
     The ionic contribution  to forces
     atom    1 type  1   force =    -0.00000000    0.00000000   -0.00000000
     atom    2 type  1   force =     0.00000000   -0.00000000   -0.00000000
     The local contribution  to forces
     atom    1 type  1   force =    -0.00000000   -0.00000000    0.00000000
     atom    2 type  1   force =    -0.00000000    0.00000000    0.00000000
     The core correction contribution to forces
     atom    1 type  1   force =     0.00000000    0.00000000    0.00000000
     atom    2 type  1   force =     0.00000000    0.00000000    0.00000000
     The Hubbard contrib.    to forces
     atom    1 type  1   force =     0.00000000    0.00000000    0.00000000
     atom    2 type  1   force =     0.00000000    0.00000000    0.00000000
     The SCF correction term to forces
     atom    1 type  1   force =     0.00000000    0.00000000   -0.00000000
     atom    2 type  1   force =     0.00000000   -0.00000000    0.00000000

     Total force =     0.000000     Total SCF correction =     0.000000


     Computing stress (Cartesian axis) and pressure

          total   stress  (Ry/bohr**3)                   (kbar)     P=      -96.36
  -0.00065502  -0.00000000  -0.00000000          -96.36       -0.00       -0.00
  -0.00000000  -0.00065502   0.00000000           -0.00      -96.36        0.00
  -0.00000000   0.00000000  -0.00065502           -0.00        0.00      -96.36

     kinetic stress (kbar)    708.91     -0.00     -0.00
                               -0.00    708.91      0.00
                               -0.00      0.00    708.91

     local   stress (kbar)   -681.04     -0.00      0.00
                               -0.00   -681.04     -0.00
                                0.00     -0.00   -681.04

     nonloc. stress (kbar)    941.72      0.00      0.00
                                0.00    941.72     -0.00
                                0.00     -0.00    941.72

     hartree stress (kbar)    155.68     -0.00     -0.00
                               -0.00    155.68      0.00
                               -0.00      0.00    155.68

     exc-cor stress (kbar)   -285.04     -0.00      0.00
                               -0.00   -285.04     -0.00
                                0.00     -0.00   -285.04

     corecor stress (kbar)      0.00      0.00      0.00
                                0.00      0.00      0.00
                                0.00      0.00      0.00

     ewald   stress (kbar)   -936.59      0.00      0.00
                                0.00   -936.59     -0.00
                                0.00     -0.00   -936.59

     hubbard stress (kbar)      0.00      0.00      0.00
                                0.00      0.00      0.00
                                0.00      0.00      0.00

     DFT-D   stress (kbar)      0.00      0.00      0.00
                                0.00      0.00      0.00
                                0.00      0.00      0.00

     XDM     stress (kbar)      0.00      0.00      0.00
                                0.00      0.00      0.00
                                0.00      0.00      0.00

     dft-nl  stress (kbar)      0.00      0.00      0.00
                                0.00      0.00      0.00
                                0.00      0.00      0.00

     TS-vdW  stress (kbar)      0.00      0.00      0.00
                                0.00      0.00      0.00
                                0.00      0.00      0.00


     Energy error            =      2.0E-02
     Gradient error          =      0.0E+00
     Cell gradient error     =      6.6E-04


     number of scf cycles    =   2
     number of bfgs steps    =   1

     enthalpy old            =     -15.4291951168 Ry
     enthalpy new            =     -15.4490890968 Ry

     CASE: enthalpy_new < enthalpy_old


     WARNING: bfgs curvature condition failed, Theta= 0.778
     new trust radius        =       0.1203016415 bohr
ibrav =      2
 celldm(1) =     13.45995123
Input lattice vectors:
    -0.48071254    -0.00000000     0.48071254
     0.00000000     0.48071254     0.48071254
    -0.48071254     0.48071254    -0.00000000
New lattice vectors in INITIAL alat:
    -0.48071254     0.00000000     0.48071254
     0.00000000     0.48071254     0.48071254
    -0.48071254     0.48071254     0.00000000
New lattice vectors in NEW alat (for information only):
    -0.50000000     0.00000000     0.50000000
     0.00000000     0.50000000     0.50000000
    -0.50000000     0.50000000     0.00000000
Discrepancy in bohr =     0.000000    0.000000    0.000000
     new conv_thr            =       0.0000000100 Ry

     new unit-cell volume =    609.63581 a.u.^3 (    90.33871 Ang^3 )
     density =      1.03249 g/cm^3

CELL_PARAMETERS (alat= 14.00000000)
  -0.480712544   0.000000000   0.480712544
   0.000000000   0.480712544   0.480712544
  -0.480712544   0.480712544   0.000000000

ATOMIC_POSITIONS (alat)
Si            0.0000000000        0.0000000000        0.0000000000    0   0   0
Si            0.2403562719        0.2403562719        0.2403562719    0   0   0



     Writing output data file ./tmp/silicon.save/
     NEW-OLD atomic charge density approx. for the potential
     extrapolated charge    7.40830, renormalised to    8.00000

     total cpu time spent up to now is        9.0 secs

     Self-consistent Calculation

     iteration #  1     ecut=    30.00 Ry     beta= 0.60
     Davidson diagonalization with overlap
     ethr =  1.00E-06,  avg # of iterations =  8.6

     total cpu time spent up to now is        9.8 secs

     total energy              =     -15.47385247 Ry
     estimated scf accuracy    <       0.00420510 Ry

     iteration #  2     ecut=    30.00 Ry     beta= 0.60
     Davidson diagonalization with overlap
     ethr =  5.26E-05,  avg # of iterations =  2.8

     total cpu time spent up to now is       10.2 secs

     total energy              =     -15.47997840 Ry
     estimated scf accuracy    <       0.00115387 Ry

     iteration #  3     ecut=    30.00 Ry     beta= 0.60
     Davidson diagonalization with overlap
     ethr =  1.44E-05,  avg # of iterations =  1.4

     total cpu time spent up to now is       10.4 secs

     total energy              =     -15.47988377 Ry
     estimated scf accuracy    <       0.00038976 Ry

     iteration #  4     ecut=    30.00 Ry     beta= 0.60
     Davidson diagonalization with overlap
     ethr =  4.87E-06,  avg # of iterations =  2.0

     total cpu time spent up to now is       10.8 secs

     total energy              =     -15.47994926 Ry
     estimated scf accuracy    <       0.00001017 Ry

     iteration #  5     ecut=    30.00 Ry     beta= 0.60
     Davidson diagonalization with overlap
     ethr =  1.27E-07,  avg # of iterations =  4.5

     total cpu time spent up to now is       11.2 secs

     total energy              =     -15.47994854 Ry
     estimated scf accuracy    <       0.00002170 Ry

     iteration #  6     ecut=    30.00 Ry     beta= 0.60
     Davidson diagonalization with overlap
     ethr =  1.27E-07,  avg # of iterations =  2.1

     total cpu time spent up to now is       11.6 secs

     total energy              =     -15.47995117 Ry
     estimated scf accuracy    <       0.00000014 Ry

     iteration #  7     ecut=    30.00 Ry     beta= 0.60
     Davidson diagonalization with overlap
     ethr =  1.80E-09,  avg # of iterations =  6.5

     total cpu time spent up to now is       12.1 secs

     total energy              =     -15.47995141 Ry
     estimated scf accuracy    <       0.00000013 Ry

     iteration #  8     ecut=    30.00 Ry     beta= 0.60
     Davidson diagonalization with overlap
     ethr =  1.69E-09,  avg # of iterations =  1.9

     total cpu time spent up to now is       12.5 secs

     End of self-consistent calculation

          k = 0.0000 0.0000 0.0000 (  1917 PWs)   bands (ev):

    -7.7683  -2.8571   0.3100   0.3100

     occupation numbers 
     1.0000   1.0000   1.0000   1.0000

          k =-0.1734 0.1734-0.1734 (  1913 PWs)   bands (ev):

    -7.6094  -3.4001   0.1206   0.1206

     occupation numbers 
     1.0000   1.0000   1.0000   1.0000

          k =-0.3467 0.3467-0.3467 (  1898 PWs)   bands (ev):

    -7.1928  -4.3946  -0.1551  -0.1551

     occupation numbers 
     1.0000   1.0000   1.0000   1.0000

          k = 0.5201-0.5201 0.5201 (  1916 PWs)   bands (ev):

    -6.8756  -4.9475  -0.2646  -0.2646

     occupation numbers 
     1.0000   1.0000   1.0000   1.0000

          k = 0.0000 0.3467 0.0000 (  1908 PWs)   bands (ev):

    -7.5534  -3.5415  -0.1513  -0.1513

     occupation numbers 
     1.0000   1.0000   1.0000   1.0000

          k =-0.1734 0.5201-0.1734 (  1908 PWs)   bands (ev):

    -7.2055  -4.3243  -0.6123  -0.4200

     occupation numbers 
     1.0000   1.0000   1.0000   1.0000

          k = 0.6934-0.3467 0.6934 (  1905 PWs)   bands (ev):

    -6.7708  -5.0492  -1.0137  -0.4709

     occupation numbers 
     1.0000   1.0000   1.0000   1.0000

          k = 0.5201-0.1734 0.5201 (  1906 PWs)   bands (ev):

    -6.9022  -4.8513  -1.0456  -0.2837

     occupation numbers 
     1.0000   1.0000   1.0000   1.0000

          k = 0.3467 0.0000 0.3467 (  1907 PWs)   bands (ev):

    -7.3564  -4.0257  -0.6249   0.0245

     occupation numbers 
     1.0000   1.0000   1.0000   1.0000

          k = 0.0000 0.6934 0.0000 (  1932 PWs)   bands (ev):

    -6.9308  -4.7751  -0.7168  -0.7168

     occupation numbers 
     1.0000   1.0000   1.0000   1.0000

          k = 0.8668-0.1734 0.8668 (  1898 PWs)   bands (ev):

    -6.4581  -5.4210  -1.1342  -0.7943

     occupation numbers 
     1.0000   1.0000   1.0000   1.0000

          k = 0.6934-0.0000 0.6934 (  1896 PWs)   bands (ev):

    -6.4377  -5.4430  -1.4016  -0.6116

     occupation numbers 
     1.0000   1.0000   1.0000   1.0000

          k = 0.0000-1.0401 0.0000 (  1868 PWs)   bands (ev):

    -5.9678  -5.9678  -0.9283  -0.9283

     occupation numbers 
     1.0000   1.0000   1.0000   1.0000

          k = 0.6934-0.3467 1.0401 (  1902 PWs)   bands (ev):

    -6.7958  -4.9786  -1.1134  -0.6297

     occupation numbers 
     1.0000   1.0000   1.0000   1.0000

          k = 0.5201-0.1734 0.8668 (  1892 PWs)   bands (ev):

    -6.4375  -5.4438  -1.3103  -0.7875

     occupation numbers 
     1.0000   1.0000   1.0000   1.0000

          k =-0.3467-1.0401 0.0000 (  1892 PWs)   bands (ev):

    -5.9601  -5.9601  -1.1218  -1.1218

     occupation numbers 
     1.0000   1.0000   1.0000   1.0000

     highest occupied level (ev):     0.3100

!    total energy              =     -15.47995142 Ry
     estimated scf accuracy    <          6.7E-09 Ry

     The total energy is the sum of the following terms:
     one-electron contribution =      -0.48662836 Ry
     hartree contribution      =       1.98100415 Ry
     xc contribution           =      -4.16762868 Ry
     ewald contribution        =     -12.80669852 Ry

     convergence has been achieved in   8 iterations

     Forces acting on atoms (cartesian axes, Ry/au):

     atom    1 type  1   force =     0.00000000    0.00000000    0.00000000
     atom    2 type  1   force =    -0.00000000   -0.00000000   -0.00000000
     The non-local contrib.  to forces
     atom    1 type  1   force =    -0.00000000   -0.00000000    0.00000000
     atom    2 type  1   force =     0.00000000    0.00000000   -0.00000000
     The ionic contribution  to forces
     atom    1 type  1   force =    -0.00000000   -0.00000000   -0.00000000
     atom    2 type  1   force =    -0.00000000    0.00000000   -0.00000000
     The local contribution  to forces
     atom    1 type  1   force =    -0.00000000    0.00000000    0.00000000
     atom    2 type  1   force =     0.00000000    0.00000000    0.00000000
     The core correction contribution to forces
     atom    1 type  1   force =     0.00000000    0.00000000    0.00000000
     atom    2 type  1   force =     0.00000000    0.00000000    0.00000000
     The Hubbard contrib.    to forces
     atom    1 type  1   force =     0.00000000    0.00000000    0.00000000
     atom    2 type  1   force =     0.00000000    0.00000000    0.00000000
     The SCF correction term to forces
     atom    1 type  1   force =     0.00000000    0.00000000   -0.00000000
     atom    2 type  1   force =    -0.00000000    0.00000000    0.00000000

     Total force =     0.000000     Total SCF correction =     0.000000


     Computing stress (Cartesian axis) and pressure

          total   stress  (Ry/bohr**3)                   (kbar)     P=     -105.05
  -0.00071411   0.00000000   0.00000000         -105.05        0.00        0.00
   0.00000000  -0.00071411  -0.00000000            0.00     -105.05       -0.00
   0.00000000  -0.00000000  -0.00071411            0.00       -0.00     -105.05

     kinetic stress (kbar)    768.19      0.00      0.00
                                0.00    768.19     -0.00
                                0.00     -0.00    768.19

     local   stress (kbar)   -702.51     -0.00     -0.00
                               -0.00   -702.51     -0.00
                               -0.00     -0.00   -702.51

     nonloc. stress (kbar)   1008.66     -0.00      0.00
                               -0.00   1008.66      0.00
                                0.00      0.00   1008.66

     hartree stress (kbar)    159.34     -0.00     -0.00
                               -0.00    159.34      0.00
                               -0.00      0.00    159.34

     exc-cor stress (kbar)   -308.64     -0.00      0.00
                               -0.00   -308.64      0.00
                                0.00      0.00   -308.64

     corecor stress (kbar)      0.00      0.00      0.00
                                0.00      0.00      0.00
                                0.00      0.00      0.00

     ewald   stress (kbar)  -1030.09      0.00      0.00
                                0.00  -1030.09      0.00
                                0.00      0.00  -1030.09

     hubbard stress (kbar)      0.00      0.00      0.00
                                0.00      0.00      0.00
                                0.00      0.00      0.00

     DFT-D   stress (kbar)      0.00      0.00      0.00
                                0.00      0.00      0.00
                                0.00      0.00      0.00

     XDM     stress (kbar)      0.00      0.00      0.00
                                0.00      0.00      0.00
                                0.00      0.00      0.00

     dft-nl  stress (kbar)      0.00      0.00      0.00
                                0.00      0.00      0.00
                                0.00      0.00      0.00

     TS-vdW  stress (kbar)      0.00      0.00      0.00
                                0.00      0.00      0.00
                                0.00      0.00      0.00


     Energy error            =      3.1E-02
     Gradient error          =      0.0E+00
     Cell gradient error     =      7.1E-04


     number of scf cycles    =   3
     number of bfgs steps    =   2

     enthalpy old            =     -15.4490890968 Ry
     enthalpy new            =     -15.4799514216 Ry

     CASE: enthalpy_new < enthalpy_old


     WARNING: bfgs curvature condition failed, Theta= 0.452
     new trust radius        =       0.1783188401 bohr
ibrav =      2
 celldm(1) =     12.97390733
Input lattice vectors:
    -0.46335383    -0.00000000     0.46335383
     0.00000000     0.46335383     0.46335383
    -0.46335383     0.46335383    -0.00000000
New lattice vectors in INITIAL alat:
    -0.46335383     0.00000000     0.46335383
     0.00000000     0.46335383     0.46335383
    -0.46335383     0.46335383     0.00000000
New lattice vectors in NEW alat (for information only):
    -0.50000000     0.00000000     0.50000000
     0.00000000     0.50000000     0.50000000
    -0.50000000     0.50000000     0.00000000
Discrepancy in bohr =     0.000000    0.000000    0.000000
     new conv_thr            =       0.0000000100 Ry

     new unit-cell volume =    545.94939 a.u.^3 (    80.90135 Ang^3 )
     density =      1.15294 g/cm^3

CELL_PARAMETERS (alat= 14.00000000)
  -0.463353833   0.000000000   0.463353833
   0.000000000   0.463353833   0.463353833
  -0.463353833   0.463353833   0.000000000

ATOMIC_POSITIONS (alat)
Si            0.0000000000        0.0000000000        0.0000000000    0   0   0
Si            0.2316769167        0.2316769167        0.2316769167    0   0   0



     Writing output data file ./tmp/silicon.save/
     NEW-OLD atomic charge density approx. for the potential
     extrapolated charge    7.06691, renormalised to    8.00000

     total cpu time spent up to now is       14.6 secs

     Self-consistent Calculation

     iteration #  1     ecut=    30.00 Ry     beta= 0.60
     Davidson diagonalization with overlap
     ethr =  1.00E-06,  avg # of iterations =  9.6

     total cpu time spent up to now is       15.4 secs

     total energy              =     -15.51448981 Ry
     estimated scf accuracy    <       0.01054211 Ry

     iteration #  2     ecut=    30.00 Ry     beta= 0.60
     Davidson diagonalization with overlap
     ethr =  1.32E-04,  avg # of iterations =  2.7

     total cpu time spent up to now is       15.8 secs

     total energy              =     -15.52826737 Ry
     estimated scf accuracy    <       0.00230498 Ry

     iteration #  3     ecut=    30.00 Ry     beta= 0.60
     Davidson diagonalization with overlap
     ethr =  2.88E-05,  avg # of iterations =  2.1

     total cpu time spent up to now is       16.1 secs

     total energy              =     -15.52814817 Ry
     estimated scf accuracy    <       0.00077077 Ry

     iteration #  4     ecut=    30.00 Ry     beta= 0.60
     Davidson diagonalization with overlap
     ethr =  9.63E-06,  avg # of iterations =  1.9

     total cpu time spent up to now is       16.4 secs

     total energy              =     -15.52825146 Ry
     estimated scf accuracy    <       0.00000617 Ry

     iteration #  5     ecut=    30.00 Ry     beta= 0.60
     Davidson diagonalization with overlap
     ethr =  7.71E-08,  avg # of iterations =  6.0

     total cpu time spent up to now is       17.0 secs

     total energy              =     -15.52826051 Ry
     estimated scf accuracy    <       0.00002269 Ry

     iteration #  6     ecut=    30.00 Ry     beta= 0.60
     Davidson diagonalization with overlap
     ethr =  7.71E-08,  avg # of iterations =  2.0

     total cpu time spent up to now is       17.3 secs

     total energy              =     -15.52826183 Ry
     estimated scf accuracy    <       0.00000056 Ry

     iteration #  7     ecut=    30.00 Ry     beta= 0.60
     Davidson diagonalization with overlap
     ethr =  6.96E-09,  avg # of iterations =  3.7

     total cpu time spent up to now is       17.8 secs

     total energy              =     -15.52826210 Ry
     estimated scf accuracy    <       0.00000005 Ry

     iteration #  8     ecut=    30.00 Ry     beta= 0.60
     Davidson diagonalization with overlap
     ethr =  6.80E-10,  avg # of iterations =  3.5

     total cpu time spent up to now is       18.2 secs

     End of self-consistent calculation

          k = 0.0000 0.0000 0.0000 (  1917 PWs)   bands (ev):

    -7.5544  -1.7004   0.8647   0.8647

     occupation numbers 
     1.0000   1.0000   1.0000   1.0000

          k =-0.1798 0.1798-0.1798 (  1913 PWs)   bands (ev):

    -7.3736  -2.4619   0.6490   0.6490

     occupation numbers 
     1.0000   1.0000   1.0000   1.0000

          k =-0.3597 0.3597-0.3597 (  1898 PWs)   bands (ev):

    -6.8952  -3.7151   0.3409   0.3409

     occupation numbers 
     1.0000   1.0000   1.0000   1.0000

          k = 0.5395-0.5395 0.5395 (  1916 PWs)   bands (ev):

    -6.5235  -4.3870   0.2199   0.2199

     occupation numbers 
     1.0000   1.0000   1.0000   1.0000

          k = 0.0000 0.3597 0.0000 (  1908 PWs)   bands (ev):

    -7.3101  -2.6292   0.3345   0.3345

     occupation numbers 
     1.0000   1.0000   1.0000   1.0000

          k =-0.1798 0.5395-0.1798 (  1908 PWs)   bands (ev):

    -6.9125  -3.5980  -0.1799   0.0341

     occupation numbers 
     1.0000   1.0000   1.0000   1.0000

          k = 0.7194-0.3597 0.7194 (  1905 PWs)   bands (ev):

    -6.4075  -4.4721  -0.6263  -0.0183

     occupation numbers 
     1.0000   1.0000   1.0000   1.0000

          k = 0.5395-0.1798 0.5395 (  1906 PWs)   bands (ev):

    -6.5609  -4.2354  -0.6735   0.1959

     occupation numbers 
     1.0000   1.0000   1.0000   1.0000

          k = 0.3597 0.0000 0.3597 (  1907 PWs)   bands (ev):

    -7.0847  -3.2415  -0.2106   0.5453

     occupation numbers 
     1.0000   1.0000   1.0000   1.0000

          k = 0.0000 0.7194 0.0000 (  1932 PWs)   bands (ev):

    -6.6007  -4.1156  -0.3010  -0.3010

     occupation numbers 
     1.0000   1.0000   1.0000   1.0000

          k = 0.8992-0.1798 0.8992 (  1898 PWs)   bands (ev):

    -6.0570  -4.8693  -0.7865  -0.3858

     occupation numbers 
     1.0000   1.0000   1.0000   1.0000

          k = 0.7194 0.0000 0.7194 (  1896 PWs)   bands (ev):

    -6.0274  -4.9015  -1.0996  -0.1778

     occupation numbers 
     1.0000   1.0000   1.0000   1.0000

          k = 0.0000-1.0791 0.0000 (  1868 PWs)   bands (ev):

    -5.4975  -5.4975  -0.5367  -0.5367

     occupation numbers 
     1.0000   1.0000   1.0000   1.0000

          k = 0.7194-0.3597 1.0791 (  1902 PWs)   bands (ev):

    -6.4426  -4.3605  -0.7648  -0.2050

     occupation numbers 
     1.0000   1.0000   1.0000   1.0000

          k = 0.5395-0.1798 0.8992 (  1892 PWs)   bands (ev):

    -6.0270  -4.9033  -0.9895  -0.3884

     occupation numbers 
     1.0000   1.0000   1.0000   1.0000

          k =-0.3597-1.0791-0.0000 (  1892 PWs)   bands (ev):

    -5.4854  -5.4854  -0.7736  -0.7736

     occupation numbers 
     1.0000   1.0000   1.0000   1.0000

     highest occupied level (ev):     0.8647

!    total energy              =     -15.52826212 Ry
     estimated scf accuracy    <          2.7E-09 Ry

     The total energy is the sum of the following terms:
     one-electron contribution =       0.15097348 Ry
     hartree contribution      =       1.83644789 Ry
     xc contribution           =      -4.22920526 Ry
     ewald contribution        =     -13.28647824 Ry

     convergence has been achieved in   8 iterations

     Forces acting on atoms (cartesian axes, Ry/au):

     atom    1 type  1   force =    -0.00000000   -0.00000000    0.00000000
     atom    2 type  1   force =     0.00000000    0.00000000   -0.00000000
     The non-local contrib.  to forces
     atom    1 type  1   force =    -0.00000000   -0.00000000   -0.00000000
     atom    2 type  1   force =    -0.00000000    0.00000000    0.00000000
     The ionic contribution  to forces
     atom    1 type  1   force =    -0.00000000   -0.00000000    0.00000000
     atom    2 type  1   force =     0.00000000   -0.00000000   -0.00000000
     The local contribution  to forces
     atom    1 type  1   force =     0.00000000    0.00000000    0.00000000
     atom    2 type  1   force =     0.00000000    0.00000000    0.00000000
     The core correction contribution to forces
     atom    1 type  1   force =     0.00000000    0.00000000    0.00000000
     atom    2 type  1   force =     0.00000000    0.00000000    0.00000000
     The Hubbard contrib.    to forces
     atom    1 type  1   force =     0.00000000    0.00000000    0.00000000
     atom    2 type  1   force =     0.00000000    0.00000000    0.00000000
     The SCF correction term to forces
     atom    1 type  1   force =     0.00000000    0.00000000   -0.00000000
     atom    2 type  1   force =    -0.00000000    0.00000000   -0.00000000

     Total force =     0.000000     Total SCF correction =     0.000000


     Computing stress (Cartesian axis) and pressure

          total   stress  (Ry/bohr**3)                   (kbar)     P=     -118.23
  -0.00080374  -0.00000000   0.00000000         -118.23       -0.00        0.00
  -0.00000000  -0.00080374   0.00000000           -0.00     -118.23        0.00
   0.00000000   0.00000000  -0.00080374            0.00        0.00     -118.23

     kinetic stress (kbar)    872.58      0.00      0.00
                                0.00    872.58     -0.00
                                0.00     -0.00    872.58

     local   stress (kbar)   -735.34     -0.00     -0.00
                               -0.00   -735.34     -0.00
                               -0.00     -0.00   -735.34

     nonloc. stress (kbar)   1122.46      0.00      0.00
                                0.00   1122.46     -0.00
                                0.00     -0.00   1122.46

     hartree stress (kbar)    164.94     -0.00      0.00
                               -0.00    164.94      0.00
                                0.00      0.00    164.94

     exc-cor stress (kbar)   -349.54     -0.00      0.00
                               -0.00   -349.54     -0.00
                                0.00     -0.00   -349.54

     corecor stress (kbar)      0.00      0.00      0.00
                                0.00      0.00      0.00
                                0.00      0.00      0.00

     ewald   stress (kbar)  -1193.34      0.00      0.00
                                0.00  -1193.34      0.00
                                0.00      0.00  -1193.34

     hubbard stress (kbar)      0.00      0.00      0.00
                                0.00      0.00      0.00
                                0.00      0.00      0.00

     DFT-D   stress (kbar)      0.00      0.00      0.00
                                0.00      0.00      0.00
                                0.00      0.00      0.00

     XDM     stress (kbar)      0.00      0.00      0.00
                                0.00      0.00      0.00
                                0.00      0.00      0.00

     dft-nl  stress (kbar)      0.00      0.00      0.00
                                0.00      0.00      0.00
                                0.00      0.00      0.00

     TS-vdW  stress (kbar)      0.00      0.00      0.00
                                0.00      0.00      0.00
                                0.00      0.00      0.00


     Energy error            =      4.8E-02
     Gradient error          =      0.0E+00
     Cell gradient error     =      8.0E-04


     number of scf cycles    =   4
     number of bfgs steps    =   3

     enthalpy old            =     -15.4799514216 Ry
     enthalpy new            =     -15.5282621214 Ry

     CASE: enthalpy_new < enthalpy_old


     WARNING: bfgs curvature condition failed, Theta= 0.679
     uphill step: resetting bfgs history

     new trust radius        =       0.0938991174 bohr
ibrav =      2
 celldm(1) =     12.71321628
Input lattice vectors:
    -0.45404344     0.00000000     0.45404344
     0.00000000     0.45404344     0.45404344
    -0.45404344     0.45404344     0.00000000
New lattice vectors in INITIAL alat:
    -0.45404344     0.00000000     0.45404344
     0.00000000     0.45404344     0.45404344
    -0.45404344     0.45404344     0.00000000
New lattice vectors in NEW alat (for information only):
    -0.50000000     0.00000000     0.50000000
     0.00000000     0.50000000     0.50000000
    -0.50000000     0.50000000     0.00000000
Discrepancy in bohr =     0.000000    0.000000    0.000000
     new conv_thr            =       0.0000000100 Ry

     new unit-cell volume =    513.69616 a.u.^3 (    76.12192 Ang^3 )
     density =      1.22533 g/cm^3

CELL_PARAMETERS (alat= 14.00000000)
  -0.454043439   0.000000000   0.454043439
   0.000000000   0.454043439   0.454043439
  -0.454043439   0.454043439   0.000000000

ATOMIC_POSITIONS (alat)
Si            0.0000000000        0.0000000000        0.0000000000    0   0   0
Si            0.2270217194        0.2270217194        0.2270217194    0   0   0



     Writing output data file ./tmp/silicon.save/
     NEW-OLD atomic charge density approx. for the potential
     extrapolated charge    7.49778, renormalised to    8.00000

     total cpu time spent up to now is       21.1 secs

     Self-consistent Calculation

     iteration #  1     ecut=    30.00 Ry     beta= 0.60
     Davidson diagonalization with overlap
     ethr =  1.00E-06,  avg # of iterations =  7.8

     total cpu time spent up to now is       21.8 secs

     total energy              =     -15.55100846 Ry
     estimated scf accuracy    <       0.00261977 Ry

     iteration #  2     ecut=    30.00 Ry     beta= 0.60
     Davidson diagonalization with overlap
     ethr =  3.27E-05,  avg # of iterations =  2.9

     total cpu time spent up to now is       22.2 secs

     total energy              =     -15.55495553 Ry
     estimated scf accuracy    <       0.00076784 Ry

     iteration #  3     ecut=    30.00 Ry     beta= 0.60
     Davidson diagonalization with overlap
     ethr =  9.60E-06,  avg # of iterations =  1.4

     total cpu time spent up to now is       22.5 secs

     total energy              =     -15.55488906 Ry
     estimated scf accuracy    <       0.00026526 Ry

     iteration #  4     ecut=    30.00 Ry     beta= 0.60
     Davidson diagonalization with overlap
     ethr =  3.32E-06,  avg # of iterations =  2.0

     total cpu time spent up to now is       22.8 secs

     total energy              =     -15.55492667 Ry
     estimated scf accuracy    <       0.00000512 Ry

     iteration #  5     ecut=    30.00 Ry     beta= 0.60
     Davidson diagonalization with overlap
     ethr =  6.40E-08,  avg # of iterations =  4.7

     total cpu time spent up to now is       23.3 secs

     total energy              =     -15.55492792 Ry
     estimated scf accuracy    <       0.00000774 Ry

     iteration #  6     ecut=    30.00 Ry     beta= 0.60
     Davidson diagonalization with overlap
     ethr =  6.40E-08,  avg # of iterations =  2.0

     total cpu time spent up to now is       23.6 secs

     total energy              =     -15.55492891 Ry
     estimated scf accuracy    <       0.00000031 Ry

     iteration #  7     ecut=    30.00 Ry     beta= 0.60
     Davidson diagonalization with overlap
     ethr =  3.82E-09,  avg # of iterations =  3.1

     total cpu time spent up to now is       24.0 secs

     total energy              =     -15.55492898 Ry
     estimated scf accuracy    <       0.00000008 Ry

     iteration #  8     ecut=    30.00 Ry     beta= 0.60
     Davidson diagonalization with overlap
     ethr =  9.71E-10,  avg # of iterations =  1.9

     total cpu time spent up to now is       24.3 secs

     total energy              =     -15.55492898 Ry
     estimated scf accuracy    <       0.00000003 Ry

     iteration #  9     ecut=    30.00 Ry     beta= 0.60
     Davidson diagonalization with overlap
     ethr =  3.18E-10,  avg # of iterations =  2.1

     total cpu time spent up to now is       24.6 secs

     End of self-consistent calculation

          k = 0.0000 0.0000 0.0000 (  1917 PWs)   bands (ev):

    -7.4303  -1.0005   1.1981   1.1981

     occupation numbers 
     1.0000   1.0000   1.0000   1.0000

          k =-0.1835 0.1835-0.1835 (  1913 PWs)   bands (ev):

    -7.2367  -1.9240   0.9668   0.9668

     occupation numbers 
     1.0000   1.0000   1.0000   1.0000

          k =-0.3671 0.3671-0.3671 (  1898 PWs)   bands (ev):

    -6.7219  -3.3344   0.6400   0.6400

     occupation numbers 
     1.0000   1.0000   1.0000   1.0000

          k = 0.5506-0.5506 0.5506 (  1916 PWs)   bands (ev):

    -6.3169  -4.0766   0.5125   0.5125

     occupation numbers 
     1.0000   1.0000   1.0000   1.0000

          k =-0.0000 0.3671-0.0000 (  1908 PWs)   bands (ev):

    -7.1689  -2.1014   0.6265   0.6265

     occupation numbers 
     1.0000   1.0000   1.0000   1.0000

          k =-0.1835 0.5506-0.1835 (  1908 PWs)   bands (ev):

    -6.7423  -3.1821   0.0822   0.3076

     occupation numbers 
     1.0000   1.0000   1.0000   1.0000

          k = 0.7341-0.3671 0.7341 (  1905 PWs)   bands (ev):

    -6.1950  -4.1455  -0.3898   0.2548

     occupation numbers 
     1.0000   1.0000   1.0000   1.0000

[...]


      isym = 46     inv. 120 deg rotation - cart. axis [-1,1,-1] 

 cryst.   s(46) = (     1         -1          0      )    f =(  0.2500000 )
                  (     1          0          0      )       (  0.2500000 )
                  (     1          0         -1      )       (  0.2500000 )

 cart.    s(46) = (  0.0000000  0.0000000 -1.0000000 )    f =( -0.1848032 )
                  (  1.0000000  0.0000000  0.0000000 )       (  0.1848032 )
                  (  0.0000000  1.0000000  0.0000000 )       (  0.1848032 )


      isym = 47     inv. 120 deg rotation - cart. axis [1,-1,-1] 

 cryst.   s(47) = (     0          0         -1      )    f =(  0.2500000 )
                  (    -1          0          0      )       (  0.2500000 )
                  (     0         -1          0      )       (  0.2500000 )

 cart.    s(47) = (  0.0000000  0.0000000  1.0000000 )    f =( -0.1848032 )
                  (  1.0000000  0.0000000  0.0000000 )       (  0.1848032 )
                  (  0.0000000 -1.0000000  0.0000000 )       (  0.1848032 )


      isym = 48     inv. 120 deg rotation - cart. axis [-1,-1,1] 

 cryst.   s(48) = (    -1          1          0      )    f =(  0.2500000 )
                  (     0          1         -1      )       (  0.2500000 )
                  (     0          1          0      )       (  0.2500000 )

 cart.    s(48) = (  0.0000000  0.0000000  1.0000000 )    f =( -0.1848032 )
                  ( -1.0000000  0.0000000  0.0000000 )       (  0.1848032 )
                  (  0.0000000  1.0000000  0.0000000 )       (  0.1848032 )


     point group O_h (m-3m) 
     there are 10 classes
     the character table:

       E     8C3   3C2   6C4   6C2'  i     8S6   3s_h  6S4   6s_d 
A_1g   1.00  1.00  1.00  1.00  1.00  1.00  1.00  1.00  1.00  1.00
A_2g   1.00  1.00  1.00 -1.00 -1.00  1.00  1.00  1.00 -1.00 -1.00
E_g    2.00 -1.00  2.00  0.00  0.00  2.00 -1.00  2.00  0.00  0.00
T_1g   3.00  0.00 -1.00  1.00 -1.00  3.00  0.00 -1.00  1.00 -1.00
T_2g   3.00  0.00 -1.00 -1.00  1.00  3.00  0.00 -1.00 -1.00  1.00
A_1u   1.00  1.00  1.00  1.00  1.00 -1.00 -1.00 -1.00 -1.00 -1.00
A_2u   1.00  1.00  1.00 -1.00 -1.00 -1.00 -1.00 -1.00  1.00  1.00
E_u    2.00 -1.00  2.00  0.00  0.00 -2.00  1.00 -2.00  0.00  0.00
T_1u   3.00  0.00 -1.00  1.00 -1.00 -3.00  0.00  1.00 -1.00  1.00
T_2u   3.00  0.00 -1.00 -1.00  1.00 -3.00  0.00  1.00  1.00 -1.00

     the symmetry operations in each class and the name of the first element:

     E        1
          identity                                               
     8C3     17   19   20   18   24   21   22   23
          120 deg rotation - cart. axis [-1,-1,-1]               
     3C2      2    4    3
          180 deg rotation - cart. axis [0,0,1]                  
     6C4      7    8   15   16   12   11
           90 deg rotation - cart. axis [0,0,-1]                 
     6C2'     5    6   14   13   10    9
          180 deg rotation - cart. axis [1,1,0]                  
     i       25
          inversion                                              
     8S6     41   43   44   42   48   45   46   47
          inv. 120 deg rotation - cart. axis [-1,-1,-1]          
     3s_h    26   28   27
          inv. 180 deg rotation - cart. axis [0,0,1]             
     6S4     31   32   39   40   36   35
          inv.  90 deg rotation - cart. axis [0,0,-1]            
     6s_d    29   30   38   37   34   33
          inv. 180 deg rotation - cart. axis [1,1,0]             

   Cartesian axes

     site n.     atom                  positions (alat units)
         1           Si  tau(   1) = (   0.0000000   0.0000000   0.0000000  )
         2           Si  tau(   2) = (   0.1848032   0.1848032   0.1848032  )

   Crystallographic axes

     site n.     atom                  positions (cryst. coord.)
         1           Si  tau(   1) = (  0.0000000  0.0000000  0.0000000  )
         2           Si  tau(   2) = ( -0.2500000  0.7500000 -0.2500000  )

     number of k points=    16
                       cart. coord. in units 2pi/alat
        k(    1) = (   0.0000000   0.0000000   0.0000000), wk =   0.0092593
        k(    2) = (  -0.2254651   0.2254651  -0.2254651), wk =   0.0740741
        k(    3) = (  -0.4509302   0.4509302  -0.4509302), wk =   0.0740741
        k(    4) = (   0.6763953  -0.6763953   0.6763953), wk =   0.0370370
        k(    5) = (  -0.0000000   0.4509302  -0.0000000), wk =   0.0555556
        k(    6) = (  -0.2254651   0.6763953  -0.2254651), wk =   0.2222222
        k(    7) = (   0.9018604  -0.4509302   0.9018604), wk =   0.2222222
        k(    8) = (   0.6763953  -0.2254651   0.6763953), wk =   0.2222222
        k(    9) = (   0.4509302  -0.0000000   0.4509302), wk =   0.1111111
        k(   10) = (  -0.0000000   0.9018604  -0.0000000), wk =   0.0555556
        k(   11) = (   1.1273255  -0.2254651   1.1273255), wk =   0.2222222
        k(   12) = (   0.9018604  -0.0000000   0.9018604), wk =   0.1111111
        k(   13) = (  -0.0000000  -1.3527905  -0.0000000), wk =   0.0277778
        k(   14) = (   0.9018604  -0.4509302   1.3527905), wk =   0.2222222
        k(   15) = (   0.6763953  -0.2254651   1.1273255), wk =   0.2222222
        k(   16) = (  -0.4509302  -1.3527905   0.0000000), wk =   0.1111111

                       cryst. coord.
        k(    1) = (   0.0000000   0.0000000   0.0000000), wk =   0.0092593
        k(    2) = (  -0.0000000  -0.0000000   0.1666667), wk =   0.0740741
        k(    3) = (  -0.0000000  -0.0000000   0.3333333), wk =   0.0740741
        k(    4) = (   0.0000000   0.0000000  -0.5000000), wk =   0.0370370
        k(    5) = (  -0.0000000   0.1666667   0.1666667), wk =   0.0555556
        k(    6) = (  -0.0000000   0.1666667   0.3333333), wk =   0.2222222
        k(    7) = (   0.0000000   0.1666667  -0.5000000), wk =   0.2222222
        k(    8) = (  -0.0000000   0.1666667  -0.3333333), wk =   0.2222222
        k(    9) = (  -0.0000000   0.1666667  -0.1666667), wk =   0.1111111
        k(   10) = (  -0.0000000   0.3333333   0.3333333), wk =   0.0555556
        k(   11) = (   0.0000000   0.3333333  -0.5000000), wk =   0.2222222
        k(   12) = (  -0.0000000   0.3333333  -0.3333333), wk =   0.1111111
        k(   13) = (   0.0000000  -0.5000000  -0.5000000), wk =   0.0277778
        k(   14) = (   0.1666667   0.3333333  -0.5000000), wk =   0.2222222
        k(   15) = (   0.1666667   0.3333333  -0.3333333), wk =   0.2222222
        k(   16) = (   0.1666667  -0.5000000  -0.3333333), wk =   0.1111111

     Dense  grid:     6183 G-vectors     FFT dimensions: (  32,  32,  32)

     Dynamical RAM for                 wfc:       0.05 MB

     Dynamical RAM for     wfc (w. buffer):       0.80 MB

     Dynamical RAM for           str. fact:       0.09 MB

     Dynamical RAM for           local pot:       0.12 MB

     Dynamical RAM for          nlocal pot:       0.12 MB

     Dynamical RAM for                qrad:       0.30 MB

     Dynamical RAM for          rho,v,vnew:       1.03 MB

     Dynamical RAM for               rhoin:       0.34 MB

     Dynamical RAM for            rho*nmix:       1.51 MB

     Dynamical RAM for           G-vectors:       0.40 MB

     Dynamical RAM for          h,s,v(r/c):       0.00 MB

     Dynamical RAM for          <psi|beta>:       0.00 MB

     Dynamical RAM for                 psi:       0.09 MB

     Dynamical RAM for                hpsi:       0.09 MB

     Dynamical RAM for      wfcinit/wfcrot:       0.19 MB

     Estimated static dynamical RAM per process >       6.15 MB

     Estimated max dynamical RAM per process >       6.35 MB

     Initial potential from superposition of free atoms

     starting charge    7.99889, renormalised to    8.00000
     Starting wfcs are    8 randomized atomic wfcs

     total cpu time spent up to now is       74.6 secs

     Self-consistent Calculation

     iteration #  1     ecut=    30.00 Ry     beta= 0.60
     Davidson diagonalization with overlap
     ethr =  1.00E-06,  avg # of iterations = 10.1

     total cpu time spent up to now is       75.0 secs

     total energy              =     -15.73861053 Ry
     estimated scf accuracy    <       0.05776840 Ry

     iteration #  2     ecut=    30.00 Ry     beta= 0.60
     Davidson diagonalization with overlap
     ethr =  7.22E-04,  avg # of iterations =  1.0

     total cpu time spent up to now is       75.1 secs

     total energy              =     -15.73963235 Ry
     estimated scf accuracy    <       0.00589737 Ry

     iteration #  3     ecut=    30.00 Ry     beta= 0.60
     Davidson diagonalization with overlap
     ethr =  7.37E-05,  avg # of iterations =  1.4

     total cpu time spent up to now is       75.2 secs

     total energy              =     -15.74008367 Ry
     estimated scf accuracy    <       0.00008105 Ry

     iteration #  4     ecut=    30.00 Ry     beta= 0.60
     Davidson diagonalization with overlap
     ethr =  1.01E-06,  avg # of iterations =  4.3

     total cpu time spent up to now is       75.3 secs

     total energy              =     -15.74016427 Ry
     estimated scf accuracy    <       0.00000277 Ry

     iteration #  5     ecut=    30.00 Ry     beta= 0.60
     Davidson diagonalization with overlap
     ethr =  3.46E-08,  avg # of iterations =  3.6

     total cpu time spent up to now is       75.5 secs

     total energy              =     -15.74016612 Ry
     estimated scf accuracy    <       0.00000007 Ry

     iteration #  6     ecut=    30.00 Ry     beta= 0.60
     Davidson diagonalization with overlap
     ethr =  9.05E-10,  avg # of iterations =  4.0

     total cpu time spent up to now is       75.7 secs

     total energy              =     -15.74016618 Ry
     estimated scf accuracy    <       0.00000002 Ry

     iteration #  7     ecut=    30.00 Ry     beta= 0.60
     Davidson diagonalization with overlap
     ethr =  3.11E-10,  avg # of iterations =  2.1

     total cpu time spent up to now is       75.8 secs

     End of self-consistent calculation

          k = 0.0000 0.0000 0.0000 (   749 PWs)   bands (ev):

    -5.7579   5.9752   5.9752   5.9752

     occupation numbers 
     1.0000   1.0000   1.0000   1.0000

          k =-0.2255 0.2255-0.2255 (   773 PWs)   bands (ev):

    -5.4046   3.6372   5.5369   5.5369

     occupation numbers 
     1.0000   1.0000   1.0000   1.0000

          k =-0.4509 0.4509-0.4509 (   769 PWs)   bands (ev):

    -4.4126   0.7479   4.9971   4.9971

     occupation numbers 
     1.0000   1.0000   1.0000   1.0000

          k = 0.6764-0.6764 0.6764 (   778 PWs)   bands (ev):

    -3.4851  -0.8460   4.8017   4.8017

     occupation numbers 
     1.0000   1.0000   1.0000   1.0000

          k =-0.0000 0.4509-0.0000 (   777 PWs)   bands (ev):

    -5.2843   3.9508   4.8172   4.8172

     occupation numbers 
     1.0000   1.0000   1.0000   1.0000

          k =-0.2255 0.6764-0.2255 (   773 PWs)   bands (ev):

    -4.4874   1.6137   4.0316   4.2754

     occupation numbers 
     1.0000   1.0000   1.0000   1.0000

          k = 0.9019-0.4509 0.9019 (   772 PWs)   bands (ev):

    -3.3272  -0.4992   3.2658   4.2430

     occupation numbers 
     1.0000   1.0000   1.0000   1.0000

          k = 0.6764-0.2255 0.6764 (   773 PWs)   bands (ev):

    -3.7013   0.0837   3.0059   4.7081

     occupation numbers 
     1.0000   1.0000   1.0000   1.0000

          k = 0.4509-0.0000 0.4509 (   767 PWs)   bands (ev):

    -4.8295   2.3156   3.6346   5.4207

     occupation numbers 
     1.0000   1.0000   1.0000   1.0000

          k =-0.0000 0.9019-0.0000 (   769 PWs)   bands (ev):

    -3.8957   1.0353   3.6199   3.6199

     occupation numbers 
     1.0000   1.0000   1.0000   1.0000

          k = 1.1273-0.2255 1.1273 (   759 PWs)   bands (ev):

    -2.7598  -0.4840   2.4466   3.4855

     occupation numbers 
     1.0000   1.0000   1.0000   1.0000

          k = 0.9019-0.0000 0.9019 (   776 PWs)   bands (ev):

    -2.5722  -0.6805   1.6893   3.9163

     occupation numbers 
     1.0000   1.0000   1.0000   1.0000

          k =-0.0000-1.3528-0.0000 (   774 PWs)   bands (ev):

    -1.7067  -1.7067   3.1942   3.1942

     occupation numbers 
     1.0000   1.0000   1.0000   1.0000

          k = 0.9019-0.4509 1.3528 (   763 PWs)   bands (ev):

    -3.5207   0.4196   2.5067   3.7454

     occupation numbers 
     1.0000   1.0000   1.0000   1.0000

          k = 0.6764-0.2255 1.1273 (   760 PWs)   bands (ev):

    -2.5628  -0.7479   2.0755   3.2938

     occupation numbers 
     1.0000   1.0000   1.0000   1.0000

          k =-0.4509-1.3528 0.0000 (   758 PWs)   bands (ev):

    -1.5929  -1.5929   2.4354   2.4354

     occupation numbers 
     1.0000   1.0000   1.0000   1.0000

     highest occupied level (ev):     5.9752

!    total energy              =     -15.74016619 Ry
     estimated scf accuracy    <          2.1E-10 Ry

     The total energy is the sum of the following terms:
     one-electron contribution =       4.58372932 Ry
     hartree contribution      =       1.12053306 Ry
     xc contribution           =      -4.78794970 Ry
     ewald contribution        =     -16.65647886 Ry

     convergence has been achieved in   7 iterations

     Forces acting on atoms (cartesian axes, Ry/au):

     atom    1 type  1   force =    -0.00000000   -0.00000000    0.00000000
     atom    2 type  1   force =     0.00000000    0.00000000   -0.00000000
     The non-local contrib.  to forces
     atom    1 type  1   force =    -0.00000000    0.00000000   -0.00000000
     atom    2 type  1   force =     0.00000000   -0.00000000    0.00000000
     The ionic contribution  to forces
     atom    1 type  1   force =    -0.00000000    0.00000000    0.00000000
     atom    2 type  1   force =     0.00000000   -0.00000000   -0.00000000
     The local contribution  to forces
     atom    1 type  1   force =    -0.00000000    0.00000000   -0.00000000
     atom    2 type  1   force =     0.00000000   -0.00000000   -0.00000000
     The core correction contribution to forces
     atom    1 type  1   force =     0.00000000    0.00000000    0.00000000
     atom    2 type  1   force =     0.00000000    0.00000000    0.00000000
     The Hubbard contrib.    to forces
     atom    1 type  1   force =     0.00000000    0.00000000    0.00000000
     atom    2 type  1   force =     0.00000000    0.00000000    0.00000000
     The SCF correction term to forces
     atom    1 type  1   force =    -0.00000000    0.00000000    0.00000000
     atom    2 type  1   force =    -0.00000000    0.00000000    0.00000000

     Total force =     0.000000     Total SCF correction =     0.000000


     Computing stress (Cartesian axis) and pressure

          total   stress  (Ry/bohr**3)                   (kbar)     P=       -0.08
  -0.00000055  -0.00000000  -0.00000000           -0.08       -0.00       -0.00
  -0.00000000  -0.00000055   0.00000000           -0.00       -0.08        0.00
   0.00000000   0.00000000  -0.00000055            0.00        0.00       -0.08

     kinetic stress (kbar)   2105.76      0.00     -0.00
                                0.00   2105.76     -0.00
                               -0.00      0.00   2105.76

     local   stress (kbar)   -939.16      0.00      0.00
                                0.00   -939.16     -0.00
                                0.00     -0.00   -939.16

     nonloc. stress (kbar)   2361.33     -0.00     -0.00
                               -0.00   2361.33      0.00
                               -0.00      0.00   2361.33

     hartree stress (kbar)    198.29     -0.00     -0.00
                               -0.00    198.29     -0.00
                               -0.00     -0.00    198.29

     exc-cor stress (kbar)   -778.78      0.00     -0.00
                                0.00   -778.78      0.00
                               -0.00      0.00   -778.78

     corecor stress (kbar)      0.00      0.00      0.00
                                0.00      0.00      0.00
                                0.00      0.00      0.00

     ewald   stress (kbar)  -2947.52     -0.00     -0.00
                               -0.00  -2947.52      0.00
                               -0.00      0.00  -2947.52

     hubbard stress (kbar)      0.00      0.00      0.00
                                0.00      0.00      0.00
                                0.00      0.00      0.00

     DFT-D   stress (kbar)      0.00      0.00      0.00
                                0.00      0.00      0.00
                                0.00      0.00      0.00

     XDM     stress (kbar)      0.00      0.00      0.00
                                0.00      0.00      0.00
                                0.00      0.00      0.00

     dft-nl  stress (kbar)      0.00      0.00      0.00
                                0.00      0.00      0.00
                                0.00      0.00      0.00

     TS-vdW  stress (kbar)      0.00      0.00      0.00
                                0.00      0.00      0.00
                                0.00      0.00      0.00



     Writing output data file ./tmp/silicon.save/

     init_run     :      0.90s CPU      0.91s WALL (       2 calls)
     electrons    :     46.59s CPU     60.87s WALL (      15 calls)
     update_pot   :      5.79s CPU      5.82s WALL (      13 calls)
     forces       :      2.35s CPU      2.36s WALL (      15 calls)
     stress       :      5.21s CPU      5.26s WALL (      15 calls)

     Called by init_run:
     wfcinit      :      0.27s CPU      0.27s WALL (       2 calls)
     wfcinit:atom :      0.01s CPU      0.01s WALL (      32 calls)
     wfcinit:wfcr :      0.24s CPU      0.24s WALL (      32 calls)
     potinit      :      0.24s CPU      0.24s WALL (       2 calls)
     hinit0       :      0.37s CPU      0.37s WALL (       2 calls)

     Called by electrons:
     c_bands      :     36.83s CPU     37.00s WALL (     126 calls)
     sum_band     :      6.34s CPU      6.35s WALL (     126 calls)
     v_of_rho     :      3.47s CPU      3.59s WALL (     139 calls)
     v_h          :      0.13s CPU      0.13s WALL (     139 calls)
     v_xc         :      3.33s CPU      3.45s WALL (     139 calls)
     mix_rho      :      0.26s CPU      0.26s WALL (     126 calls)

     Called by c_bands:
     init_us_2    :      1.42s CPU      1.43s WALL (    4544 calls)
     cegterg      :     35.93s CPU     36.09s WALL (    2016 calls)

     Called by sum_band:
     sum_band:wei :      0.00s CPU      0.00s WALL (     126 calls)
     sum_band:loo :      5.83s CPU      5.85s WALL (     126 calls)
     sum_band:buf :      0.02s CPU      0.02s WALL (    2016 calls)
     sum_band:ini :      0.61s CPU      0.61s WALL (    2016 calls)

     Called by *egterg:
     cdiaghg      :      0.19s CPU      0.20s WALL (    7779 calls)
     cegterg:over :      0.35s CPU      0.35s WALL (    6003 calls)
     cegterg:upda :      0.27s CPU      0.27s WALL (    6003 calls)
     cegterg:last :      0.39s CPU      0.40s WALL (    5259 calls)
     h_psi        :     34.38s CPU     34.53s WALL (    8051 calls)
     g_psi        :      0.25s CPU      0.25s WALL (    6003 calls)

     Called by h_psi:
     h_psi:calbec :      0.41s CPU      0.41s WALL (    8051 calls)
     vloc_psi     :     33.53s CPU     33.68s WALL (    8051 calls)
     add_vuspsi   :      0.35s CPU      0.35s WALL (    8051 calls)

     General routines
     calbec       :      0.50s CPU      0.50s WALL (    9251 calls)
     fft          :      1.25s CPU      1.26s WALL (    1510 calls)
     ffts         :      0.11s CPU      0.11s WALL (     126 calls)
     fftw         :     35.30s CPU     35.45s WALL (   61848 calls)

     Parallel routines

     PWSCF        :   1m 0.99s CPU   1m16.17s WALL


   This run was terminated on:  16:25: 9  20Sep2022            

=------------------------------------------------------------------------------=
   JOB DONE.
=------------------------------------------------------------------------------=
