
     Program PWSCF v.6.7MaX starts on 19Sep2022 at 23:14: 0 

     This program is part of the open-source Quantum ESPRESSO suite
     for quantum simulation of materials; please cite
         "P. Giannozzi et al., J. Phys.:Condens. Matter 21 395502 (2009);
         "P. Giannozzi et al., J. Phys.:Condens. Matter 29 465901 (2017);
          URL http://www.quantum-espresso.org", 
     in publications or presentations arising from this work. More details at
     http://www.quantum-espresso.org/quote

     Parallel version (MPI), running on     1 processors

     MPI processes distributed on     1 nodes
     Waiting for input...
     Reading input from standard input

     Current dimensions of program PWSCF are:
     Max number of different atomic species (ntypx) = 10
     Max number of k-points (npk) =  40000
     Max angular momentum in pseudopotentials (lmaxx) =  3

     Atomic positions and unit cell read from directory:
     ./tmp/silicon.save/


     Subspace diagonalization in iterative solution of the eigenvalue problem:
     a serial algorithm will be used

     Message from routine setup:
     no reason to have ecutrho>4*ecutwfc

     G-vector sticks info
     --------------------
     sticks:   dense  smooth     PW     G-vecs:    dense   smooth      PW
     Sum        1417     721    211                35749    12627    2085



     bravais-lattice index     =            2
     lattice parameter (alat)  =      10.2076  a.u.
     unit-cell volume          =     265.8955 (a.u.)^3
     number of atoms/cell      =            2
     number of atomic types    =            1
     number of electrons       =         8.00
     number of Kohn-Sham states=            8
     kinetic-energy cutoff     =      50.0000  Ry
     charge density cutoff     =     400.0000  Ry
     Exchange-correlation=  SLA  PW   PBE  PBE
                           (   1   4   3   4   0   0   0)

     celldm(1)=  10.207600  celldm(2)=   0.000000  celldm(3)=   0.000000
     celldm(4)=   0.000000  celldm(5)=   0.000000  celldm(6)=   0.000000

     crystal axes: (cart. coord. in units of alat)
               a(1) = (  -0.500000   0.000000   0.500000 )  
               a(2) = (   0.000000   0.500000   0.500000 )  
               a(3) = (  -0.500000   0.500000   0.000000 )  

     reciprocal axes: (cart. coord. in units 2 pi/alat)
               b(1) = ( -1.000000 -1.000000  1.000000 )  
               b(2) = (  1.000000  1.000000  1.000000 )  
               b(3) = ( -1.000000  1.000000 -1.000000 )  


     PseudoPot. # 1 for Si read from file:
     ./Si.pbe-rrkj.UPF
     MD5 check sum: cf7ab5690cd9a85b22c4813f7e365554
     Pseudo is Norm-conserving, Zval =  4.0
     Generated by new atomic code, or converted to UPF format
     Using radial grid of  883 points,  3 beta functions with: 
                l(1) =   0
                l(2) =   0
                l(3) =   1

     atomic species   valence    mass     pseudopotential
        Si             4.00    28.08600     Si( 1.00)

     48 Sym. Ops., with inversion, found (24 have fractional translation)


                                    s                        frac. trans.

      isym =  1     identity                                     

 cryst.   s( 1) = (     1          0          0      )
                  (     0          1          0      )
                  (     0          0          1      )

 cart.    s( 1) = (  1.0000000  0.0000000  0.0000000 )
                  (  0.0000000  1.0000000  0.0000000 )
                  (  0.0000000  0.0000000  1.0000000 )


      isym =  2     180 deg rotation - cart. axis [0,0,1]        

 cryst.   s( 2) = (     0          1         -1      )
                  (     1          0         -1      )
                  (     0          0         -1      )

 cart.    s( 2) = ( -1.0000000  0.0000000  0.0000000 )
                  (  0.0000000 -1.0000000  0.0000000 )
                  (  0.0000000  0.0000000  1.0000000 )


      isym =  3     180 deg rotation - cart. axis [0,1,0]        

 cryst.   s( 3) = (    -1          0          0      )
                  (    -1          0          1      )
                  (    -1          1          0      )

 cart.    s( 3) = ( -1.0000000  0.0000000  0.0000000 )
                  (  0.0000000  1.0000000  0.0000000 )
                  (  0.0000000  0.0000000 -1.0000000 )


      isym =  4     180 deg rotation - cart. axis [1,0,0]        

 cryst.   s( 4) = (     0         -1          1      )
                  (     0         -1          0      )
                  (     1         -1          0      )

 cart.    s( 4) = (  1.0000000  0.0000000  0.0000000 )
                  (  0.0000000 -1.0000000  0.0000000 )
                  (  0.0000000  0.0000000 -1.0000000 )


      isym =  5     180 deg rotation - cart. axis [1,1,0]        

 cryst.   s( 5) = (     0         -1          0      )    f =(  0.2500000 )
                  (    -1          0          0      )       (  0.2500000 )
                  (     0          0         -1      )       (  0.2500000 )

 cart.    s( 5) = (  0.0000000  1.0000000  0.0000000 )    f =( -0.2500000 )
                  (  1.0000000  0.0000000  0.0000000 )       (  0.2500000 )
                  (  0.0000000  0.0000000 -1.0000000 )       (  0.2500000 )


      isym =  6     180 deg rotation - cart. axis [1,-1,0]       

 cryst.   s( 6) = (    -1          0          1      )    f =(  0.2500000 )
                  (     0         -1          1      )       (  0.2500000 )
                  (     0          0          1      )       (  0.2500000 )

 cart.    s( 6) = (  0.0000000 -1.0000000  0.0000000 )    f =( -0.2500000 )
                  ( -1.0000000  0.0000000  0.0000000 )       (  0.2500000 )
                  (  0.0000000  0.0000000 -1.0000000 )       (  0.2500000 )


      isym =  7      90 deg rotation - cart. axis [0,0,-1]       

 cryst.   s( 7) = (     0          1          0      )    f =(  0.2500000 )
                  (     0          1         -1      )       (  0.2500000 )
                  (    -1          1          0      )       (  0.2500000 )

 cart.    s( 7) = (  0.0000000  1.0000000  0.0000000 )    f =( -0.2500000 )
                  ( -1.0000000  0.0000000  0.0000000 )       (  0.2500000 )
                  (  0.0000000  0.0000000  1.0000000 )       (  0.2500000 )


      isym =  8      90 deg rotation - cart. axis [0,0,1]        

 cryst.   s( 8) = (     1          0         -1      )    f =(  0.2500000 )
                  (     1          0          0      )       (  0.2500000 )
                  (     1         -1          0      )       (  0.2500000 )

 cart.    s( 8) = (  0.0000000 -1.0000000  0.0000000 )    f =( -0.2500000 )
                  (  1.0000000  0.0000000  0.0000000 )       (  0.2500000 )
                  (  0.0000000  0.0000000  1.0000000 )       (  0.2500000 )


      isym =  9     180 deg rotation - cart. axis [1,0,1]        

 cryst.   s( 9) = (    -1          0          0      )    f =(  0.2500000 )
                  (     0          0         -1      )       (  0.2500000 )
                  (     0         -1          0      )       (  0.2500000 )

 cart.    s( 9) = (  0.0000000  0.0000000  1.0000000 )    f =( -0.2500000 )
                  (  0.0000000 -1.0000000  0.0000000 )       (  0.2500000 )
                  (  1.0000000  0.0000000  0.0000000 )       (  0.2500000 )


      isym = 10     180 deg rotation - cart. axis [-1,0,1]       

 cryst.   s(10) = (     1          0          0      )    f =(  0.2500000 )
                  (     1         -1          0      )       (  0.2500000 )
                  (     1          0         -1      )       (  0.2500000 )

 cart.    s(10) = (  0.0000000  0.0000000 -1.0000000 )    f =( -0.2500000 )
                  (  0.0000000 -1.0000000  0.0000000 )       (  0.2500000 )
                  ( -1.0000000  0.0000000  0.0000000 )       (  0.2500000 )


      isym = 11      90 deg rotation - cart. axis [0,1,0]        

 cryst.   s(11) = (     0          1         -1      )    f =(  0.2500000 )
                  (    -1          1          0      )       (  0.2500000 )
                  (     0          1          0      )       (  0.2500000 )

 cart.    s(11) = (  0.0000000  0.0000000  1.0000000 )    f =( -0.2500000 )
                  (  0.0000000  1.0000000  0.0000000 )       (  0.2500000 )
                  ( -1.0000000  0.0000000  0.0000000 )       (  0.2500000 )


      isym = 12      90 deg rotation - cart. axis [0,-1,0]       

 cryst.   s(12) = (     0         -1          1      )    f =(  0.2500000 )
                  (     0          0          1      )       (  0.2500000 )
                  (    -1          0          1      )       (  0.2500000 )

 cart.    s(12) = (  0.0000000  0.0000000 -1.0000000 )    f =( -0.2500000 )
                  (  0.0000000  1.0000000  0.0000000 )       (  0.2500000 )
                  (  1.0000000  0.0000000  0.0000000 )       (  0.2500000 )


      isym = 13     180 deg rotation - cart. axis [0,1,1]        

 cryst.   s(13) = (    -1          1          0      )    f =(  0.2500000 )
                  (     0          1          0      )       (  0.2500000 )
                  (     0          1         -1      )       (  0.2500000 )

 cart.    s(13) = ( -1.0000000  0.0000000  0.0000000 )    f =( -0.2500000 )
                  (  0.0000000  0.0000000  1.0000000 )       (  0.2500000 )
                  (  0.0000000  1.0000000  0.0000000 )       (  0.2500000 )


      isym = 14     180 deg rotation - cart. axis [0,1,-1]       

 cryst.   s(14) = (     0          0         -1      )    f =(  0.2500000 )
                  (     0         -1          0      )       (  0.2500000 )
                  (    -1          0          0      )       (  0.2500000 )

 cart.    s(14) = ( -1.0000000  0.0000000  0.0000000 )    f =( -0.2500000 )
                  (  0.0000000  0.0000000 -1.0000000 )       (  0.2500000 )
                  (  0.0000000 -1.0000000  0.0000000 )       (  0.2500000 )


      isym = 15      90 deg rotation - cart. axis [-1,0,0]       

 cryst.   s(15) = (     0          0          1      )    f =(  0.2500000 )
                  (    -1          0          1      )       (  0.2500000 )
                  (     0         -1          1      )       (  0.2500000 )

 cart.    s(15) = (  1.0000000  0.0000000  0.0000000 )    f =( -0.2500000 )
                  (  0.0000000  0.0000000  1.0000000 )       (  0.2500000 )
                  (  0.0000000 -1.0000000  0.0000000 )       (  0.2500000 )


      isym = 16      90 deg rotation - cart. axis [1,0,0]        

 cryst.   s(16) = (     1         -1          0      )    f =(  0.2500000 )
                  (     1          0         -1      )       (  0.2500000 )
                  (     1          0          0      )       (  0.2500000 )

 cart.    s(16) = (  1.0000000  0.0000000  0.0000000 )    f =( -0.2500000 )
                  (  0.0000000  0.0000000 -1.0000000 )       (  0.2500000 )
                  (  0.0000000  1.0000000  0.0000000 )       (  0.2500000 )


      isym = 17     120 deg rotation - cart. axis [-1,-1,-1]     

 cryst.   s(17) = (    -1          0          1      )
                  (    -1          1          0      )
                  (    -1          0          0      )

 cart.    s(17) = (  0.0000000  1.0000000  0.0000000 )
                  (  0.0000000  0.0000000  1.0000000 )
                  (  1.0000000  0.0000000  0.0000000 )


      isym = 18     120 deg rotation - cart. axis [-1,1,1]       

 cryst.   s(18) = (     0          1          0      )
                  (     0          0          1      )
                  (     1          0          0      )

 cart.    s(18) = (  0.0000000 -1.0000000  0.0000000 )
                  (  0.0000000  0.0000000  1.0000000 )
                  ( -1.0000000  0.0000000  0.0000000 )


      isym = 19     120 deg rotation - cart. axis [1,1,-1]       

 cryst.   s(19) = (     1          0         -1      )
                  (     0          0         -1      )
                  (     0          1         -1      )

 cart.    s(19) = (  0.0000000  1.0000000  0.0000000 )
                  (  0.0000000  0.0000000 -1.0000000 )
                  ( -1.0000000  0.0000000  0.0000000 )


      isym = 20     120 deg rotation - cart. axis [1,-1,1]       

 cryst.   s(20) = (     0         -1          0      )
                  (     1         -1          0      )
                  (     0         -1          1      )

 cart.    s(20) = (  0.0000000 -1.0000000  0.0000000 )
                  (  0.0000000  0.0000000 -1.0000000 )
                  (  1.0000000  0.0000000  0.0000000 )


      isym = 21     120 deg rotation - cart. axis [1,1,1]        

 cryst.   s(21) = (     0          0         -1      )
                  (     0          1         -1      )
                  (     1          0         -1      )

 cart.    s(21) = (  0.0000000  0.0000000  1.0000000 )
                  (  1.0000000  0.0000000  0.0000000 )
                  (  0.0000000  1.0000000  0.0000000 )


      isym = 22     120 deg rotation - cart. axis [-1,1,-1]      

 cryst.   s(22) = (    -1          1          0      )
                  (    -1          0          0      )
                  (    -1          0          1      )

 cart.    s(22) = (  0.0000000  0.0000000  1.0000000 )
                  ( -1.0000000  0.0000000  0.0000000 )
                  (  0.0000000 -1.0000000  0.0000000 )


      isym = 23     120 deg rotation - cart. axis [1,-1,-1]      

 cryst.   s(23) = (     0          0          1      )
                  (     1          0          0      )
                  (     0          1          0      )

 cart.    s(23) = (  0.0000000  0.0000000 -1.0000000 )
                  ( -1.0000000  0.0000000  0.0000000 )
                  (  0.0000000  1.0000000  0.0000000 )


      isym = 24     120 deg rotation - cart. axis [-1,-1,1]      

 cryst.   s(24) = (     1         -1          0      )
                  (     0         -1          1      )
                  (     0         -1          0      )

 cart.    s(24) = (  0.0000000  0.0000000 -1.0000000 )
                  (  1.0000000  0.0000000  0.0000000 )
                  (  0.0000000 -1.0000000  0.0000000 )


      isym = 25     inversion                                    

 cryst.   s(25) = (    -1          0          0      )    f =(  0.2500000 )
                  (     0         -1          0      )       (  0.2500000 )
                  (     0          0         -1      )       (  0.2500000 )

 cart.    s(25) = ( -1.0000000  0.0000000  0.0000000 )    f =( -0.2500000 )
                  (  0.0000000 -1.0000000  0.0000000 )       (  0.2500000 )
                  (  0.0000000  0.0000000 -1.0000000 )       (  0.2500000 )


      isym = 26     inv. 180 deg rotation - cart. axis [0,0,1]   

 cryst.   s(26) = (     0         -1          1      )    f =(  0.2500000 )
                  (    -1          0          1      )       (  0.2500000 )
                  (     0          0          1      )       (  0.2500000 )

 cart.    s(26) = (  1.0000000  0.0000000  0.0000000 )    f =( -0.2500000 )
                  (  0.0000000  1.0000000  0.0000000 )       (  0.2500000 )
                  (  0.0000000  0.0000000 -1.0000000 )       (  0.2500000 )


      isym = 27     inv. 180 deg rotation - cart. axis [0,1,0]   

 cryst.   s(27) = (     1          0          0      )    f =(  0.2500000 )
                  (     1          0         -1      )       (  0.2500000 )
                  (     1         -1          0      )       (  0.2500000 )

 cart.    s(27) = (  1.0000000  0.0000000  0.0000000 )    f =( -0.2500000 )
                  (  0.0000000 -1.0000000  0.0000000 )       (  0.2500000 )
                  (  0.0000000  0.0000000  1.0000000 )       (  0.2500000 )


      isym = 28     inv. 180 deg rotation - cart. axis [1,0,0]   

 cryst.   s(28) = (     0          1         -1      )    f =(  0.2500000 )
                  (     0          1          0      )       (  0.2500000 )
                  (    -1          1          0      )       (  0.2500000 )

 cart.    s(28) = ( -1.0000000  0.0000000  0.0000000 )    f =( -0.2500000 )
                  (  0.0000000  1.0000000  0.0000000 )       (  0.2500000 )
                  (  0.0000000  0.0000000  1.0000000 )       (  0.2500000 )


      isym = 29     inv. 180 deg rotation - cart. axis [1,1,0]   

 cryst.   s(29) = (     0          1          0      )
                  (     1          0          0      )
                  (     0          0          1      )

 cart.    s(29) = (  0.0000000 -1.0000000  0.0000000 )
                  ( -1.0000000  0.0000000  0.0000000 )
                  (  0.0000000  0.0000000  1.0000000 )


      isym = 30     inv. 180 deg rotation - cart. axis [1,-1,0]  

 cryst.   s(30) = (     1          0         -1      )
                  (     0          1         -1      )
                  (     0          0         -1      )

 cart.    s(30) = (  0.0000000  1.0000000  0.0000000 )
                  (  1.0000000  0.0000000  0.0000000 )
                  (  0.0000000  0.0000000  1.0000000 )


      isym = 31     inv.  90 deg rotation - cart. axis [0,0,-1]  

 cryst.   s(31) = (     0         -1          0      )
                  (     0         -1          1      )
                  (     1         -1          0      )

 cart.    s(31) = (  0.0000000 -1.0000000  0.0000000 )
                  (  1.0000000  0.0000000  0.0000000 )
                  (  0.0000000  0.0000000 -1.0000000 )


      isym = 32     inv.  90 deg rotation - cart. axis [0,0,1]   

 cryst.   s(32) = (    -1          0          1      )
                  (    -1          0          0      )
                  (    -1          1          0      )

 cart.    s(32) = (  0.0000000  1.0000000  0.0000000 )
                  ( -1.0000000  0.0000000  0.0000000 )
                  (  0.0000000  0.0000000 -1.0000000 )


      isym = 33     inv. 180 deg rotation - cart. axis [1,0,1]   

 cryst.   s(33) = (     1          0          0      )
                  (     0          0          1      )
                  (     0          1          0      )

 cart.    s(33) = (  0.0000000  0.0000000 -1.0000000 )
                  (  0.0000000  1.0000000  0.0000000 )
                  ( -1.0000000  0.0000000  0.0000000 )


      isym = 34     inv. 180 deg rotation - cart. axis [-1,0,1]  

 cryst.   s(34) = (    -1          0          0      )
                  (    -1          1          0      )
                  (    -1          0          1      )

 cart.    s(34) = (  0.0000000  0.0000000  1.0000000 )
                  (  0.0000000  1.0000000  0.0000000 )
                  (  1.0000000  0.0000000  0.0000000 )


      isym = 35     inv.  90 deg rotation - cart. axis [0,1,0]   

 cryst.   s(35) = (     0         -1          1      )
                  (     1         -1          0      )
                  (     0         -1          0      )

 cart.    s(35) = (  0.0000000  0.0000000 -1.0000000 )
                  (  0.0000000 -1.0000000  0.0000000 )
                  (  1.0000000  0.0000000  0.0000000 )


      isym = 36     inv.  90 deg rotation - cart. axis [0,-1,0]  

 cryst.   s(36) = (     0          1         -1      )
                  (     0          0         -1      )
                  (     1          0         -1      )

 cart.    s(36) = (  0.0000000  0.0000000  1.0000000 )
                  (  0.0000000 -1.0000000  0.0000000 )
                  ( -1.0000000  0.0000000  0.0000000 )


      isym = 37     inv. 180 deg rotation - cart. axis [0,1,1]   

 cryst.   s(37) = (     1         -1          0      )
                  (     0         -1          0      )
                  (     0         -1          1      )

 cart.    s(37) = (  1.0000000  0.0000000  0.0000000 )
                  (  0.0000000  0.0000000 -1.0000000 )
                  (  0.0000000 -1.0000000  0.0000000 )


      isym = 38     inv. 180 deg rotation - cart. axis [0,1,-1]  

 cryst.   s(38) = (     0          0          1      )
                  (     0          1          0      )
                  (     1          0          0      )

 cart.    s(38) = (  1.0000000  0.0000000  0.0000000 )
                  (  0.0000000  0.0000000  1.0000000 )
                  (  0.0000000  1.0000000  0.0000000 )


      isym = 39     inv.  90 deg rotation - cart. axis [-1,0,0]  

 cryst.   s(39) = (     0          0         -1      )
                  (     1          0         -1      )
                  (     0          1         -1      )

 cart.    s(39) = ( -1.0000000  0.0000000  0.0000000 )
                  (  0.0000000  0.0000000 -1.0000000 )
                  (  0.0000000  1.0000000  0.0000000 )


      isym = 40     inv.  90 deg rotation - cart. axis [1,0,0]   

 cryst.   s(40) = (    -1          1          0      )
                  (    -1          0          1      )
                  (    -1          0          0      )

 cart.    s(40) = ( -1.0000000  0.0000000  0.0000000 )
                  (  0.0000000  0.0000000  1.0000000 )
                  (  0.0000000 -1.0000000  0.0000000 )


      isym = 41     inv. 120 deg rotation - cart. axis [-1,-1,-1]

 cryst.   s(41) = (     1          0         -1      )    f =(  0.2500000 )
                  (     1         -1          0      )       (  0.2500000 )
                  (     1          0          0      )       (  0.2500000 )

 cart.    s(41) = (  0.0000000 -1.0000000  0.0000000 )    f =( -0.2500000 )
                  (  0.0000000  0.0000000 -1.0000000 )       (  0.2500000 )
                  ( -1.0000000  0.0000000  0.0000000 )       (  0.2500000 )


      isym = 42     inv. 120 deg rotation - cart. axis [-1,1,1]  

 cryst.   s(42) = (     0         -1          0      )    f =(  0.2500000 )
                  (     0          0         -1      )       (  0.2500000 )
                  (    -1          0          0      )       (  0.2500000 )

 cart.    s(42) = (  0.0000000  1.0000000  0.0000000 )    f =( -0.2500000 )
                  (  0.0000000  0.0000000 -1.0000000 )       (  0.2500000 )
                  (  1.0000000  0.0000000  0.0000000 )       (  0.2500000 )


      isym = 43     inv. 120 deg rotation - cart. axis [1,1,-1]  

 cryst.   s(43) = (    -1          0          1      )    f =(  0.2500000 )
                  (     0          0          1      )       (  0.2500000 )
                  (     0         -1          1      )       (  0.2500000 )

 cart.    s(43) = (  0.0000000 -1.0000000  0.0000000 )    f =( -0.2500000 )
                  (  0.0000000  0.0000000  1.0000000 )       (  0.2500000 )
                  (  1.0000000  0.0000000  0.0000000 )       (  0.2500000 )


      isym = 44     inv. 120 deg rotation - cart. axis [1,-1,1]  

 cryst.   s(44) = (     0          1          0      )    f =(  0.2500000 )
                  (    -1          1          0      )       (  0.2500000 )
                  (     0          1         -1      )       (  0.2500000 )

 cart.    s(44) = (  0.0000000  1.0000000  0.0000000 )    f =( -0.2500000 )
                  (  0.0000000  0.0000000  1.0000000 )       (  0.2500000 )
                  ( -1.0000000  0.0000000  0.0000000 )       (  0.2500000 )


      isym = 45     inv. 120 deg rotation - cart. axis [1,1,1]   

 cryst.   s(45) = (     0          0          1      )    f =(  0.2500000 )
                  (     0         -1          1      )       (  0.2500000 )
                  (    -1          0          1      )       (  0.2500000 )

 cart.    s(45) = (  0.0000000  0.0000000 -1.0000000 )    f =( -0.2500000 )
                  ( -1.0000000  0.0000000  0.0000000 )       (  0.2500000 )
                  (  0.0000000 -1.0000000  0.0000000 )       (  0.2500000 )


      isym = 46     inv. 120 deg rotation - cart. axis [-1,1,-1] 

 cryst.   s(46) = (     1         -1          0      )    f =(  0.2500000 )
                  (     1          0          0      )       (  0.2500000 )
                  (     1          0         -1      )       (  0.2500000 )

 cart.    s(46) = (  0.0000000  0.0000000 -1.0000000 )    f =( -0.2500000 )
                  (  1.0000000  0.0000000  0.0000000 )       (  0.2500000 )
                  (  0.0000000  1.0000000  0.0000000 )       (  0.2500000 )


      isym = 47     inv. 120 deg rotation - cart. axis [1,-1,-1] 

 cryst.   s(47) = (     0          0         -1      )    f =(  0.2500000 )
                  (    -1          0          0      )       (  0.2500000 )
                  (     0         -1          0      )       (  0.2500000 )

 cart.    s(47) = (  0.0000000  0.0000000  1.0000000 )    f =( -0.2500000 )
                  (  1.0000000  0.0000000  0.0000000 )       (  0.2500000 )
                  (  0.0000000 -1.0000000  0.0000000 )       (  0.2500000 )


      isym = 48     inv. 120 deg rotation - cart. axis [-1,-1,1] 

 cryst.   s(48) = (    -1          1          0      )    f =(  0.2500000 )
                  (     0          1         -1      )       (  0.2500000 )
                  (     0          1          0      )       (  0.2500000 )

 cart.    s(48) = (  0.0000000  0.0000000  1.0000000 )    f =( -0.2500000 )
                  ( -1.0000000  0.0000000  0.0000000 )       (  0.2500000 )
                  (  0.0000000  1.0000000  0.0000000 )       (  0.2500000 )


     point group O_h (m-3m) 
     there are 10 classes
     the character table:

       E     8C3   3C2   6C4   6C2'  i     8S6   3s_h  6S4   6s_d 
A_1g   1.00  1.00  1.00  1.00  1.00  1.00  1.00  1.00  1.00  1.00
A_2g   1.00  1.00  1.00 -1.00 -1.00  1.00  1.00  1.00 -1.00 -1.00
E_g    2.00 -1.00  2.00  0.00  0.00  2.00 -1.00  2.00  0.00  0.00
T_1g   3.00  0.00 -1.00  1.00 -1.00  3.00  0.00 -1.00  1.00 -1.00
T_2g   3.00  0.00 -1.00 -1.00  1.00  3.00  0.00 -1.00 -1.00  1.00
A_1u   1.00  1.00  1.00  1.00  1.00 -1.00 -1.00 -1.00 -1.00 -1.00
A_2u   1.00  1.00  1.00 -1.00 -1.00 -1.00 -1.00 -1.00  1.00  1.00
E_u    2.00 -1.00  2.00  0.00  0.00 -2.00  1.00 -2.00  0.00  0.00
T_1u   3.00  0.00 -1.00  1.00 -1.00 -3.00  0.00  1.00 -1.00  1.00
T_2u   3.00  0.00 -1.00 -1.00  1.00 -3.00  0.00  1.00  1.00 -1.00

     the symmetry operations in each class and the name of the first element:

     E        1
          identity                                               
     8C3     17   19   20   18   24   21   22   23
          120 deg rotation - cart. axis [-1,-1,-1]               
     3C2      2    4    3
          180 deg rotation - cart. axis [0,0,1]                  
     6C4      7    8   15   16   12   11
           90 deg rotation - cart. axis [0,0,-1]                 
     6C2'     5    6   14   13   10    9
          180 deg rotation - cart. axis [1,1,0]                  
     i       25
          inversion                                              
     8S6     41   43   44   42   48   45   46   47
          inv. 120 deg rotation - cart. axis [-1,-1,-1]          
     3s_h    26   28   27
          inv. 180 deg rotation - cart. axis [0,0,1]             
     6S4     31   32   39   40   36   35
          inv.  90 deg rotation - cart. axis [0,0,-1]            
     6s_d    29   30   38   37   34   33
          inv. 180 deg rotation - cart. axis [1,1,0]             

   Cartesian axes

     site n.     atom                  positions (alat units)
         1           Si  tau(   1) = (   0.0000000   0.0000000   0.0000000  )
         2           Si  tau(   2) = (   0.2500000   0.2500000   0.2500000  )

   Crystallographic axes

     site n.     atom                  positions (cryst. coord.)
         1           Si  tau(   1) = (  0.0000000  0.0000000  0.0000000  )
         2           Si  tau(   2) = ( -0.2500000  0.7500000 -0.2500000  )

     number of k points=    91
                       cart. coord. in units 2pi/alat
        k(    1) = (   0.5000000   0.5000000   0.5000000), wk =   0.0219780
        k(    2) = (   0.4750000   0.4750000   0.4750000), wk =   0.0219780
        k(    3) = (   0.4500000   0.4500000   0.4500000), wk =   0.0219780
        k(    4) = (   0.4250000   0.4250000   0.4250000), wk =   0.0219780
        k(    5) = (   0.4000000   0.4000000   0.4000000), wk =   0.0219780
        k(    6) = (   0.3750000   0.3750000   0.3750000), wk =   0.0219780
        k(    7) = (   0.3500000   0.3500000   0.3500000), wk =   0.0219780
        k(    8) = (   0.3250000   0.3250000   0.3250000), wk =   0.0219780
        k(    9) = (   0.3000000   0.3000000   0.3000000), wk =   0.0219780
        k(   10) = (   0.2750000   0.2750000   0.2750000), wk =   0.0219780
        k(   11) = (   0.2500000   0.2500000   0.2500000), wk =   0.0219780
        k(   12) = (   0.2250000   0.2250000   0.2250000), wk =   0.0219780
        k(   13) = (   0.2000000   0.2000000   0.2000000), wk =   0.0219780
        k(   14) = (   0.1750000   0.1750000   0.1750000), wk =   0.0219780
        k(   15) = (   0.1500000   0.1500000   0.1500000), wk =   0.0219780
        k(   16) = (   0.1250000   0.1250000   0.1250000), wk =   0.0219780
        k(   17) = (   0.1000000   0.1000000   0.1000000), wk =   0.0219780
        k(   18) = (   0.0750000   0.0750000   0.0750000), wk =   0.0219780
        k(   19) = (   0.0500000   0.0500000   0.0500000), wk =   0.0219780
        k(   20) = (   0.0250000   0.0250000   0.0250000), wk =   0.0219780
        k(   21) = (   0.0000000   0.0000000   0.0000000), wk =   0.0219780
        k(   22) = (   0.0333333   0.0000000   0.0000000), wk =   0.0219780
        k(   23) = (   0.0666667   0.0000000   0.0000000), wk =   0.0219780
        k(   24) = (   0.1000000   0.0000000   0.0000000), wk =   0.0219780
        k(   25) = (   0.1333333   0.0000000   0.0000000), wk =   0.0219780
        k(   26) = (   0.1666667   0.0000000   0.0000000), wk =   0.0219780
        k(   27) = (   0.2000000   0.0000000   0.0000000), wk =   0.0219780
        k(   28) = (   0.2333333   0.0000000   0.0000000), wk =   0.0219780
        k(   29) = (   0.2666667   0.0000000   0.0000000), wk =   0.0219780
        k(   30) = (   0.3000000   0.0000000   0.0000000), wk =   0.0219780
        k(   31) = (   0.3333333   0.0000000   0.0000000), wk =   0.0219780
        k(   32) = (   0.3666667   0.0000000   0.0000000), wk =   0.0219780
        k(   33) = (   0.4000000   0.0000000   0.0000000), wk =   0.0219780
        k(   34) = (   0.4333333   0.0000000   0.0000000), wk =   0.0219780
        k(   35) = (   0.4666667   0.0000000   0.0000000), wk =   0.0219780
        k(   36) = (   0.5000000   0.0000000   0.0000000), wk =   0.0219780
        k(   37) = (   0.5333333   0.0000000   0.0000000), wk =   0.0219780
        k(   38) = (   0.5666667   0.0000000   0.0000000), wk =   0.0219780
        k(   39) = (   0.6000000   0.0000000   0.0000000), wk =   0.0219780
        k(   40) = (   0.6333333   0.0000000   0.0000000), wk =   0.0219780
        k(   41) = (   0.6666667   0.0000000   0.0000000), wk =   0.0219780
        k(   42) = (   0.7000000   0.0000000   0.0000000), wk =   0.0219780
        k(   43) = (   0.7333333   0.0000000   0.0000000), wk =   0.0219780
        k(   44) = (   0.7666667   0.0000000   0.0000000), wk =   0.0219780
        k(   45) = (   0.8000000   0.0000000   0.0000000), wk =   0.0219780
        k(   46) = (   0.8333333   0.0000000   0.0000000), wk =   0.0219780
        k(   47) = (   0.8666667   0.0000000   0.0000000), wk =   0.0219780
        k(   48) = (   0.9000000   0.0000000   0.0000000), wk =   0.0219780
        k(   49) = (   0.9333333   0.0000000   0.0000000), wk =   0.0219780
        k(   50) = (   0.9666667   0.0000000   0.0000000), wk =   0.0219780
        k(   51) = (   1.0000000   0.0000000   0.0000000), wk =   0.0219780
        k(   52) = (   1.0000000   0.0250000   0.0250000), wk =   0.0219780
        k(   53) = (   1.0000000   0.0500000   0.0500000), wk =   0.0219780
        k(   54) = (   1.0000000   0.0750000   0.0750000), wk =   0.0219780
        k(   55) = (   1.0000000   0.1000000   0.1000000), wk =   0.0219780
        k(   56) = (   1.0000000   0.1250000   0.1250000), wk =   0.0219780
        k(   57) = (   1.0000000   0.1500000   0.1500000), wk =   0.0219780
        k(   58) = (   1.0000000   0.1750000   0.1750000), wk =   0.0219780
        k(   59) = (   1.0000000   0.2000000   0.2000000), wk =   0.0219780
        k(   60) = (   1.0000000   0.2250000   0.2250000), wk =   0.0219780
        k(   61) = (   1.0000000   0.2500000   0.2500000), wk =   0.0219780
        k(   62) = (   0.9666667   0.2416667   0.2416667), wk =   0.0219780
        k(   63) = (   0.9333333   0.2333333   0.2333333), wk =   0.0219780
        k(   64) = (   0.9000000   0.2250000   0.2250000), wk =   0.0219780
        k(   65) = (   0.8666667   0.2166667   0.2166667), wk =   0.0219780
        k(   66) = (   0.8333333   0.2083333   0.2083333), wk =   0.0219780
        k(   67) = (   0.8000000   0.2000000   0.2000000), wk =   0.0219780
        k(   68) = (   0.7666667   0.1916667   0.1916667), wk =   0.0219780
        k(   69) = (   0.7333333   0.1833333   0.1833333), wk =   0.0219780
        k(   70) = (   0.7000000   0.1750000   0.1750000), wk =   0.0219780
        k(   71) = (   0.6666667   0.1666667   0.1666667), wk =   0.0219780
        k(   72) = (   0.6333333   0.1583333   0.1583333), wk =   0.0219780
        k(   73) = (   0.6000000   0.1500000   0.1500000), wk =   0.0219780
        k(   74) = (   0.5666667   0.1416667   0.1416667), wk =   0.0219780
        k(   75) = (   0.5333333   0.1333333   0.1333333), wk =   0.0219780
        k(   76) = (   0.5000000   0.1250000   0.1250000), wk =   0.0219780
        k(   77) = (   0.4666667   0.1166667   0.1166667), wk =   0.0219780
        k(   78) = (   0.4333333   0.1083333   0.1083333), wk =   0.0219780
        k(   79) = (   0.4000000   0.1000000   0.1000000), wk =   0.0219780
        k(   80) = (   0.3666667   0.0916667   0.0916667), wk =   0.0219780
        k(   81) = (   0.3333333   0.0833333   0.0833333), wk =   0.0219780
        k(   82) = (   0.3000000   0.0750000   0.0750000), wk =   0.0219780
        k(   83) = (   0.2666667   0.0666667   0.0666667), wk =   0.0219780
        k(   84) = (   0.2333333   0.0583333   0.0583333), wk =   0.0219780
        k(   85) = (   0.2000000   0.0500000   0.0500000), wk =   0.0219780
        k(   86) = (   0.1666667   0.0416667   0.0416667), wk =   0.0219780
        k(   87) = (   0.1333333   0.0333333   0.0333333), wk =   0.0219780
        k(   88) = (   0.1000000   0.0250000   0.0250000), wk =   0.0219780
        k(   89) = (   0.0666667   0.0166667   0.0166667), wk =   0.0219780
        k(   90) = (   0.0333333   0.0083333   0.0083333), wk =   0.0219780
        k(   91) = (   0.0000000   0.0000000   0.0000000), wk =   0.0219780

                       cryst. coord.
        k(    1) = (   0.0000000   0.5000000   0.0000000), wk =   0.0219780
        k(    2) = (   0.0000000   0.4750000   0.0000000), wk =   0.0219780
        k(    3) = (   0.0000000   0.4500000   0.0000000), wk =   0.0219780
        k(    4) = (   0.0000000   0.4250000   0.0000000), wk =   0.0219780
        k(    5) = (   0.0000000   0.4000000   0.0000000), wk =   0.0219780
        k(    6) = (   0.0000000   0.3750000   0.0000000), wk =   0.0219780
        k(    7) = (   0.0000000   0.3500000   0.0000000), wk =   0.0219780
        k(    8) = (   0.0000000   0.3250000   0.0000000), wk =   0.0219780
        k(    9) = (   0.0000000   0.3000000   0.0000000), wk =   0.0219780
        k(   10) = (   0.0000000   0.2750000   0.0000000), wk =   0.0219780
        k(   11) = (   0.0000000   0.2500000   0.0000000), wk =   0.0219780
        k(   12) = (   0.0000000   0.2250000   0.0000000), wk =   0.0219780
        k(   13) = (   0.0000000   0.2000000   0.0000000), wk =   0.0219780
        k(   14) = (   0.0000000   0.1750000   0.0000000), wk =   0.0219780
        k(   15) = (   0.0000000   0.1500000   0.0000000), wk =   0.0219780
        k(   16) = (   0.0000000   0.1250000   0.0000000), wk =   0.0219780
        k(   17) = (   0.0000000   0.1000000   0.0000000), wk =   0.0219780
        k(   18) = (   0.0000000   0.0750000   0.0000000), wk =   0.0219780
        k(   19) = (   0.0000000   0.0500000   0.0000000), wk =   0.0219780
        k(   20) = (   0.0000000   0.0250000   0.0000000), wk =   0.0219780
        k(   21) = (   0.0000000   0.0000000   0.0000000), wk =   0.0219780
        k(   22) = (  -0.0166667   0.0000000  -0.0166667), wk =   0.0219780
        k(   23) = (  -0.0333333   0.0000000  -0.0333333), wk =   0.0219780
        k(   24) = (  -0.0500000   0.0000000  -0.0500000), wk =   0.0219780
        k(   25) = (  -0.0666667   0.0000000  -0.0666667), wk =   0.0219780
        k(   26) = (  -0.0833333   0.0000000  -0.0833333), wk =   0.0219780
        k(   27) = (  -0.1000000   0.0000000  -0.1000000), wk =   0.0219780
        k(   28) = (  -0.1166667   0.0000000  -0.1166667), wk =   0.0219780
        k(   29) = (  -0.1333333   0.0000000  -0.1333333), wk =   0.0219780
        k(   30) = (  -0.1500000   0.0000000  -0.1500000), wk =   0.0219780
        k(   31) = (  -0.1666667   0.0000000  -0.1666667), wk =   0.0219780
        k(   32) = (  -0.1833333   0.0000000  -0.1833333), wk =   0.0219780
        k(   33) = (  -0.2000000   0.0000000  -0.2000000), wk =   0.0219780
        k(   34) = (  -0.2166667   0.0000000  -0.2166667), wk =   0.0219780
        k(   35) = (  -0.2333333   0.0000000  -0.2333333), wk =   0.0219780
        k(   36) = (  -0.2500000   0.0000000  -0.2500000), wk =   0.0219780
        k(   37) = (  -0.2666667   0.0000000  -0.2666667), wk =   0.0219780
        k(   38) = (  -0.2833333   0.0000000  -0.2833333), wk =   0.0219780
        k(   39) = (  -0.3000000   0.0000000  -0.3000000), wk =   0.0219780
        k(   40) = (  -0.3166667   0.0000000  -0.3166667), wk =   0.0219780
        k(   41) = (  -0.3333333   0.0000000  -0.3333333), wk =   0.0219780
        k(   42) = (  -0.3500000   0.0000000  -0.3500000), wk =   0.0219780
        k(   43) = (  -0.3666667   0.0000000  -0.3666667), wk =   0.0219780
        k(   44) = (  -0.3833333   0.0000000  -0.3833333), wk =   0.0219780
        k(   45) = (  -0.4000000   0.0000000  -0.4000000), wk =   0.0219780
        k(   46) = (  -0.4166667   0.0000000  -0.4166667), wk =   0.0219780
        k(   47) = (  -0.4333333   0.0000000  -0.4333333), wk =   0.0219780
        k(   48) = (  -0.4500000   0.0000000  -0.4500000), wk =   0.0219780
        k(   49) = (  -0.4666667   0.0000000  -0.4666667), wk =   0.0219780
        k(   50) = (  -0.4833333   0.0000000  -0.4833333), wk =   0.0219780
        k(   51) = (  -0.5000000   0.0000000  -0.5000000), wk =   0.0219780
        k(   52) = (  -0.4875000   0.0250000  -0.4875000), wk =   0.0219780
        k(   53) = (  -0.4750000   0.0500000  -0.4750000), wk =   0.0219780
        k(   54) = (  -0.4625000   0.0750000  -0.4625000), wk =   0.0219780
        k(   55) = (  -0.4500000   0.1000000  -0.4500000), wk =   0.0219780
        k(   56) = (  -0.4375000   0.1250000  -0.4375000), wk =   0.0219780
        k(   57) = (  -0.4250000   0.1500000  -0.4250000), wk =   0.0219780
        k(   58) = (  -0.4125000   0.1750000  -0.4125000), wk =   0.0219780
        k(   59) = (  -0.4000000   0.2000000  -0.4000000), wk =   0.0219780
        k(   60) = (  -0.3875000   0.2250000  -0.3875000), wk =   0.0219780
        k(   61) = (  -0.3750000   0.2500000  -0.3750000), wk =   0.0219780
        k(   62) = (  -0.3625000   0.2416667  -0.3625000), wk =   0.0219780
        k(   63) = (  -0.3500000   0.2333333  -0.3500000), wk =   0.0219780
        k(   64) = (  -0.3375000   0.2250000  -0.3375000), wk =   0.0219780
        k(   65) = (  -0.3250000   0.2166667  -0.3250000), wk =   0.0219780
        k(   66) = (  -0.3125000   0.2083333  -0.3125000), wk =   0.0219780
        k(   67) = (  -0.3000000   0.2000000  -0.3000000), wk =   0.0219780
        k(   68) = (  -0.2875000   0.1916667  -0.2875000), wk =   0.0219780
        k(   69) = (  -0.2750000   0.1833333  -0.2750000), wk =   0.0219780
        k(   70) = (  -0.2625000   0.1750000  -0.2625000), wk =   0.0219780
        k(   71) = (  -0.2500000   0.1666667  -0.2500000), wk =   0.0219780
        k(   72) = (  -0.2375000   0.1583333  -0.2375000), wk =   0.0219780
        k(   73) = (  -0.2250000   0.1500000  -0.2250000), wk =   0.0219780
        k(   74) = (  -0.2125000   0.1416667  -0.2125000), wk =   0.0219780
        k(   75) = (  -0.2000000   0.1333333  -0.2000000), wk =   0.0219780
        k(   76) = (  -0.1875000   0.1250000  -0.1875000), wk =   0.0219780
        k(   77) = (  -0.1750000   0.1166667  -0.1750000), wk =   0.0219780
        k(   78) = (  -0.1625000   0.1083333  -0.1625000), wk =   0.0219780
        k(   79) = (  -0.1500000   0.1000000  -0.1500000), wk =   0.0219780
        k(   80) = (  -0.1375000   0.0916667  -0.1375000), wk =   0.0219780
        k(   81) = (  -0.1250000   0.0833333  -0.1250000), wk =   0.0219780
        k(   82) = (  -0.1125000   0.0750000  -0.1125000), wk =   0.0219780
        k(   83) = (  -0.1000000   0.0666667  -0.1000000), wk =   0.0219780
        k(   84) = (  -0.0875000   0.0583333  -0.0875000), wk =   0.0219780
        k(   85) = (  -0.0750000   0.0500000  -0.0750000), wk =   0.0219780
        k(   86) = (  -0.0625000   0.0416667  -0.0625000), wk =   0.0219780
        k(   87) = (  -0.0500000   0.0333333  -0.0500000), wk =   0.0219780
        k(   88) = (  -0.0375000   0.0250000  -0.0375000), wk =   0.0219780
        k(   89) = (  -0.0250000   0.0166667  -0.0250000), wk =   0.0219780
        k(   90) = (  -0.0125000   0.0083333  -0.0125000), wk =   0.0219780
        k(   91) = (   0.0000000   0.0000000   0.0000000), wk =   0.0219780

     Dense  grid:    35749 G-vectors     FFT dimensions: (  48,  48,  48)

     Smooth grid:    12627 G-vectors     FFT dimensions: (  36,  36,  36)

     Dynamical RAM for                 wfc:       0.19 MB

     Dynamical RAM for     wfc (w. buffer):       0.19 MB

     Dynamical RAM for           str. fact:       0.55 MB

     Dynamical RAM for           local pot:       0.00 MB

     Dynamical RAM for          nlocal pot:       0.24 MB

     Dynamical RAM for                qrad:       0.28 MB

     Dynamical RAM for          rho,v,vnew:       4.17 MB

     Dynamical RAM for           G-vectors:       2.14 MB

     Dynamical RAM for          h,s,v(r/c):       0.01 MB

     Dynamical RAM for          <psi|beta>:       0.00 MB

     Dynamical RAM for                 psi:       0.39 MB

     Dynamical RAM for                hpsi:       0.39 MB

     Dynamical RAM for      wfcinit/wfcrot:       0.39 MB

     Estimated static dynamical RAM per process >      12.88 MB

     Estimated max dynamical RAM per process >      13.66 MB

     The potential is recalculated from file :
     ./tmp/silicon.save/charge-density

     Starting wfcs are    8 randomized atomic wfcs

     Band Structure Calculation
     Davidson diagonalization with overlap

     Computing kpt #:     1  of    91
     total cpu time spent up to now is        0.5 secs

     Computing kpt #:     2  of    91
     total cpu time spent up to now is        0.7 secs

     Computing kpt #:     3  of    91
     total cpu time spent up to now is        1.0 secs

     Computing kpt #:     4  of    91
     total cpu time spent up to now is        1.2 secs

     Computing kpt #:     5  of    91
     total cpu time spent up to now is        1.4 secs

     Computing kpt #:     6  of    91
     total cpu time spent up to now is        1.7 secs

     Computing kpt #:     7  of    91
     total cpu time spent up to now is        2.0 secs

     Computing kpt #:     8  of    91
     total cpu time spent up to now is        2.3 secs

     Computing kpt #:     9  of    91
     total cpu time spent up to now is        2.6 secs

     Computing kpt #:    10  of    91
     total cpu time spent up to now is        2.9 secs

     Computing kpt #:    11  of    91
     total cpu time spent up to now is        3.1 secs

     Computing kpt #:    12  of    91
     total cpu time spent up to now is        3.4 secs

     Computing kpt #:    13  of    91
     total cpu time spent up to now is        3.6 secs

     Computing kpt #:    14  of    91
     total cpu time spent up to now is        3.8 secs

     Computing kpt #:    15  of    91
     total cpu time spent up to now is        4.1 secs

     Computing kpt #:    16  of    91
     total cpu time spent up to now is        4.3 secs

     Computing kpt #:    17  of    91
     total cpu time spent up to now is        4.5 secs

     Computing kpt #:    18  of    91
     total cpu time spent up to now is        4.7 secs

     Computing kpt #:    19  of    91
     total cpu time spent up to now is        5.0 secs

     Computing kpt #:    20  of    91
     total cpu time spent up to now is        5.2 secs

     Computing kpt #:    21  of    91
     total cpu time spent up to now is        5.3 secs

     Computing kpt #:    22  of    91
     total cpu time spent up to now is        5.6 secs

     Computing kpt #:    23  of    91
     total cpu time spent up to now is        5.8 secs

     Computing kpt #:    24  of    91
     total cpu time spent up to now is        6.0 secs

     Computing kpt #:    25  of    91
     total cpu time spent up to now is        6.2 secs

     Computing kpt #:    26  of    91
     total cpu time spent up to now is        6.5 secs

     Computing kpt #:    27  of    91
     total cpu time spent up to now is        6.7 secs

     Computing kpt #:    28  of    91
     total cpu time spent up to now is        6.9 secs

     Computing kpt #:    29  of    91
     total cpu time spent up to now is        7.2 secs

     Computing kpt #:    30  of    91
     total cpu time spent up to now is        7.4 secs

     Computing kpt #:    31  of    91
     total cpu time spent up to now is        7.7 secs

     Computing kpt #:    32  of    91
     total cpu time spent up to now is        8.0 secs

     Computing kpt #:    33  of    91
     total cpu time spent up to now is        8.2 secs

     Computing kpt #:    34  of    91
     total cpu time spent up to now is        8.5 secs

     Computing kpt #:    35  of    91
     total cpu time spent up to now is        8.7 secs

     Computing kpt #:    36  of    91
     total cpu time spent up to now is        9.0 secs

     Computing kpt #:    37  of    91
     total cpu time spent up to now is        9.2 secs

     Computing kpt #:    38  of    91
     total cpu time spent up to now is        9.4 secs

     Computing kpt #:    39  of    91
     total cpu time spent up to now is        9.7 secs

     Computing kpt #:    40  of    91
     total cpu time spent up to now is        9.9 secs

     Computing kpt #:    41  of    91
     total cpu time spent up to now is       10.1 secs

     Computing kpt #:    42  of    91
     total cpu time spent up to now is       10.4 secs

     Computing kpt #:    43  of    91
     total cpu time spent up to now is       10.6 secs

     Computing kpt #:    44  of    91
     total cpu time spent up to now is       10.8 secs

     Computing kpt #:    45  of    91
     total cpu time spent up to now is       11.0 secs

     Computing kpt #:    46  of    91
     total cpu time spent up to now is       11.9 secs

     Computing kpt #:    47  of    91
     total cpu time spent up to now is       12.2 secs

     Computing kpt #:    48  of    91
     total cpu time spent up to now is       12.4 secs

     Computing kpt #:    49  of    91
     total cpu time spent up to now is       12.6 secs

     Computing kpt #:    50  of    91
     total cpu time spent up to now is       12.9 secs

     Computing kpt #:    51  of    91
     total cpu time spent up to now is       13.1 secs

     Computing kpt #:    52  of    91
     total cpu time spent up to now is       13.4 secs

     Computing kpt #:    53  of    91
     total cpu time spent up to now is       13.7 secs

     Computing kpt #:    54  of    91
     total cpu time spent up to now is       13.9 secs

     Computing kpt #:    55  of    91
     total cpu time spent up to now is       14.2 secs

     Computing kpt #:    56  of    91
     total cpu time spent up to now is       14.5 secs

     Computing kpt #:    57  of    91
     total cpu time spent up to now is       14.8 secs

     Computing kpt #:    58  of    91
     total cpu time spent up to now is       15.2 secs

     Computing kpt #:    59  of    91
     total cpu time spent up to now is       15.5 secs

     Computing kpt #:    60  of    91
     total cpu time spent up to now is       16.0 secs

     Computing kpt #:    61  of    91
     total cpu time spent up to now is       16.3 secs

     Computing kpt #:    62  of    91
     total cpu time spent up to now is       16.6 secs

     Computing kpt #:    63  of    91
     total cpu time spent up to now is       16.8 secs

     Computing kpt #:    64  of    91
     total cpu time spent up to now is       17.0 secs

     Computing kpt #:    65  of    91
     total cpu time spent up to now is       17.3 secs

     Computing kpt #:    66  of    91
     total cpu time spent up to now is       17.5 secs

     Computing kpt #:    67  of    91
     total cpu time spent up to now is       17.7 secs

     Computing kpt #:    68  of    91
     total cpu time spent up to now is       17.9 secs

     Computing kpt #:    69  of    91
     total cpu time spent up to now is       18.1 secs

     Computing kpt #:    70  of    91
     total cpu time spent up to now is       18.4 secs

     Computing kpt #:    71  of    91
     total cpu time spent up to now is       18.6 secs

     Computing kpt #:    72  of    91
     total cpu time spent up to now is       18.8 secs

     Computing kpt #:    73  of    91
     total cpu time spent up to now is       19.0 secs

     Computing kpt #:    74  of    91
     total cpu time spent up to now is       19.3 secs

     Computing kpt #:    75  of    91
     total cpu time spent up to now is       19.5 secs

     Computing kpt #:    76  of    91
     total cpu time spent up to now is       19.7 secs

     Computing kpt #:    77  of    91
     total cpu time spent up to now is       20.0 secs

     Computing kpt #:    78  of    91
     total cpu time spent up to now is       20.2 secs

     Computing kpt #:    79  of    91
     total cpu time spent up to now is       20.5 secs

     Computing kpt #:    80  of    91
     total cpu time spent up to now is       20.8 secs

     Computing kpt #:    81  of    91
     total cpu time spent up to now is       21.0 secs

     Computing kpt #:    82  of    91
     total cpu time spent up to now is       21.3 secs

     Computing kpt #:    83  of    91
     total cpu time spent up to now is       21.6 secs

     Computing kpt #:    84  of    91
     total cpu time spent up to now is       21.9 secs

     Computing kpt #:    85  of    91
     total cpu time spent up to now is       22.1 secs

     Computing kpt #:    86  of    91
     total cpu time spent up to now is       22.4 secs

     Computing kpt #:    87  of    91
     total cpu time spent up to now is       22.6 secs

     Computing kpt #:    88  of    91
     total cpu time spent up to now is       22.9 secs

     Computing kpt #:    89  of    91
     total cpu time spent up to now is       23.1 secs

     Computing kpt #:    90  of    91
     total cpu time spent up to now is       23.3 secs

     Computing kpt #:    91  of    91
     total cpu time spent up to now is       23.5 secs

     ethr =  1.25E-10,  avg # of iterations = 31.7

     total cpu time spent up to now is       23.5 secs

     End of band structure calculation

          k = 0.5000 0.5000 0.5000 (  1568 PWs)   bands (ev):

    -3.2379  -0.6142   5.1885   5.1885   8.0509   9.7402   9.7402  14.1708

          k = 0.4750 0.4750 0.4750 (  1574 PWs)   bands (ev):

    -3.2747  -0.5618   5.1930   5.1930   8.0559   9.7456   9.7456  14.1791

          k = 0.4500 0.4500 0.4500 (  1580 PWs)   bands (ev):

    -3.3768  -0.4131   5.2065   5.2065   8.0711   9.7616   9.7616  14.2033

          k = 0.4250 0.4250 0.4250 (  1586 PWs)   bands (ev):

    -3.5258  -0.1864   5.2291   5.2291   8.0964   9.7869   9.7869  14.2416

          k = 0.4000 0.4000 0.4000 (  1586 PWs)   bands (ev):

    -3.7029   0.0992   5.2606   5.2606   8.1316   9.8197   9.8197  14.2892

          k = 0.3750 0.3750 0.3750 (  1592 PWs)   bands (ev):

    -3.8937   0.4289   5.3010   5.3010   8.1765   9.8569   9.8569  14.3366

          k = 0.3500 0.3500 0.3500 (  1597 PWs)   bands (ev):

    -4.0881   0.7924   5.3502   5.3502   8.2309   9.8944   9.8944  14.3631

          k = 0.3250 0.3250 0.3250 (  1594 PWs)   bands (ev):

    -4.2799   1.1828   5.4081   5.4081   8.2943   9.9269   9.9269  14.3093

          k = 0.3000 0.3000 0.3000 (  1600 PWs)   bands (ev):

    -4.4648   1.5953   5.4743   5.4743   8.3662   9.9476   9.9476  14.0193

          k = 0.2750 0.2750 0.2750 (  1588 PWs)   bands (ev):

    -4.6399   2.0259   5.5486   5.5486   8.4458   9.9494   9.9494  13.7841

          k = 0.2500 0.2500 0.2500 (  1582 PWs)   bands (ev):

    -4.8033   2.4718   5.6302   5.6302   8.5319   9.9253   9.9253  13.4871

          k = 0.2250 0.2250 0.2250 (  1579 PWs)   bands (ev):

    -4.9535   2.9299   5.7184   5.7184   8.6230   9.8709   9.8709  13.0710

          k = 0.2000 0.2000 0.2000 (  1576 PWs)   bands (ev):

    -5.0897   3.3972   5.8119   5.8119   8.7170   9.7858   9.7858  12.6366

          k = 0.1750 0.1750 0.1750 (  1570 PWs)   bands (ev):

    -5.2111   3.8702   5.9092   5.9092   8.8108   9.6744   9.6744  12.1943

          k = 0.1500 0.1500 0.1500 (  1570 PWs)   bands (ev):

    -5.3171   4.3443   6.0079   6.0079   8.9001   9.5450   9.5450  11.7521

          k = 0.1250 0.1250 0.1250 (  1570 PWs)   bands (ev):

    -5.4073   4.8127   6.1050   6.1050   8.9789   9.4079   9.4079  11.3194

          k = 0.1000 0.1000 0.1000 (  1570 PWs)   bands (ev):

    -5.4816   5.2655   6.1964   6.1964   9.0382   9.2742   9.2742  10.9111

          k = 0.0750 0.0750 0.0750 (  1570 PWs)   bands (ev):

    -5.5395   5.6862   6.2771   6.2771   9.0656   9.1549   9.1549  10.5509

          k = 0.0500 0.0500 0.0500 (  1588 PWs)   bands (ev):

    -5.5810   6.0468   6.3411   6.3411   9.0506   9.0602   9.0602  10.2727

          k = 0.0250 0.0250 0.0250 (  1615 PWs)   bands (ev):

    -5.6059   6.3023   6.3827   6.3827   8.9992   8.9992   9.0048  10.1054

          k = 0.0000 0.0000 0.0000 (  1591 PWs)   bands (ev):

    -5.6142   6.3971   6.3971   6.3971   8.9781   8.9781   8.9781  10.0519

          k = 0.0333 0.0000 0.0000 (  1615 PWs)   bands (ev):

    -5.6093   6.3656   6.3756   6.3756   8.9659   9.0056   9.0056  10.0827

          k = 0.0667 0.0000 0.0000 (  1595 PWs)   bands (ev):

    -5.5945   6.2744   6.3139   6.3139   8.9302   9.0856   9.0856  10.1712

          k = 0.1000 0.0000 0.0000 (  1579 PWs)   bands (ev):

    -5.5699   6.1318   6.2187   6.2187   8.8726   9.2110   9.2110  10.3069

          k = 0.1333 0.0000 0.0000 (  1579 PWs)   bands (ev):

    -5.5354   5.9479   6.0984   6.0984   8.7960   9.3736   9.3736  10.4749

          k = 0.1667 0.0000 0.0000 (  1571 PWs)   bands (ev):

    -5.4911   5.7327   5.9609   5.9609   8.7035   9.5653   9.5653  10.6570

          k = 0.2000 0.0000 0.0000 (  1571 PWs)   bands (ev):

    -5.4371   5.4941   5.8124   5.8124   8.5986   9.7798   9.7798  10.8297

          k = 0.2333 0.0000 0.0000 (  1575 PWs)   bands (ev):

    -5.3732   5.2383   5.6577   5.6577   8.4846  10.0121  10.0121  10.9605

          k = 0.2667 0.0000 0.0000 (  1575 PWs)   bands (ev):

    -5.2997   4.9699   5.5006   5.5006   8.3646  10.2585  10.2585  11.0100

          k = 0.3000 0.0000 0.0000 (  1575 PWs)   bands (ev):

    -5.2165   4.6921   5.3435   5.3435   8.2410  10.5163  10.5163  10.9530

          k = 0.3333 0.0000 0.0000 (  1579 PWs)   bands (ev):

    -5.1237   4.4074   5.1884   5.1884   8.1165  10.7832  10.7832  10.8009

          k = 0.3667 0.0000 0.0000 (  1591 PWs)   bands (ev):

    -5.0213   4.1176   5.0368   5.0368   7.9928  10.5868  11.0578  11.0578

          k = 0.4000 0.0000 0.0000 (  1599 PWs)   bands (ev):

    -4.9095   3.8238   4.8897   4.8897   7.8717  10.3397  11.3389  11.3389

          k = 0.4333 0.0000 0.0000 (  1587 PWs)   bands (ev):

    -4.7883   3.5272   4.7480   4.7480   7.7545  10.0782  11.6253  11.6253

          k = 0.4667 0.0000 0.0000 (  1587 PWs)   bands (ev):

    -4.6577   3.2284   4.6124   4.6124   7.6426   9.8132  11.9165  11.9165

          k = 0.5000 0.0000 0.0000 (  1587 PWs)   bands (ev):

    -4.5179   2.9282   4.4834   4.4834   7.5369   9.5513  12.2118  12.2118

          k = 0.5333 0.0000 0.0000 (  1596 PWs)   bands (ev):

    -4.3690   2.6271   4.3614   4.3614   7.4383   9.2965  12.5107  12.5107

          k = 0.5667 0.0000 0.0000 (  1596 PWs)   bands (ev):

    -4.2111   2.3256   4.2468   4.2468   7.3475   9.0516  12.8129  12.8129

          k = 0.6000 0.0000 0.0000 (  1588 PWs)   bands (ev):

    -4.0443   2.0243   4.1399   4.1399   7.2651   8.8181  13.1181  13.1181

          k = 0.6333 0.0000 0.0000 (  1580 PWs)   bands (ev):

    -3.8687   1.7235   4.0408   4.0408   7.1919   8.5974  13.4261  13.4261

          k = 0.6667 0.0000 0.0000 (  1580 PWs)   bands (ev):

    -3.6846   1.4237   3.9498   3.9498   7.1282   8.3902  13.7367  13.7367

          k = 0.7000 0.0000 0.0000 (  1584 PWs)   bands (ev):

    -3.4921   1.1255   3.8671   3.8671   7.0745   8.1970  14.0498  14.0498

          k = 0.7333 0.0000 0.0000 (  1600 PWs)   bands (ev):

    -3.2913   0.8292   3.7927   3.7927   7.0312   8.0181  14.3652  14.3652

          k = 0.7667 0.0000 0.0000 (  1600 PWs)   bands (ev):

    -3.0824   0.5354   3.7269   3.7269   6.9988   7.8537  14.6827  14.6827

          k = 0.8000 0.0000 0.0000 (  1604 PWs)   bands (ev):

    -2.8657   0.2445   3.6697   3.6697   6.9776   7.7038  15.0020  15.0020

          k = 0.8333 0.0000 0.0000 (  1600 PWs)   bands (ev):

    -2.6414  -0.0430   3.6211   3.6211   6.9678   7.5683  15.3224  15.3224

          k = 0.8667 0.0000 0.0000 (  1604 PWs)   bands (ev):

    -2.4097  -0.3267   3.5813   3.5813   6.9699   7.4472  15.6424  15.6424

          k = 0.9000 0.0000 0.0000 (  1596 PWs)   bands (ev):

    -2.1709  -0.6062   3.5503   3.5503   6.9841   7.3403  15.9591  15.9591

          k = 0.9333 0.0000 0.0000 (  1596 PWs)   bands (ev):

    -1.9253  -0.8809   3.5281   3.5281   7.0108   7.2474  16.2644  16.2644

          k = 0.9667 0.0000 0.0000 (  1588 PWs)   bands (ev):

    -1.6731  -1.1506   3.5148   3.5148   7.0502   7.1682  16.5315  16.5315

          k = 1.0000 0.0000 0.0000 (  1588 PWs)   bands (ev):

    -1.4148  -1.4148   3.5104   3.5104   7.1025   7.1025  16.6609  16.6609

          k = 1.0000 0.0250 0.0250 (  1588 PWs)   bands (ev):

    -1.4169  -1.4088   3.4721   3.5148   7.1077   7.1588  16.5954  16.6284

          k = 1.0000 0.0500 0.0500 (  1588 PWs)   bands (ev):

    -1.4234  -1.3910   3.3650   3.5282   7.1231   7.3202  16.4186  16.5350

          k = 1.0000 0.0750 0.0750 (  1598 PWs)   bands (ev):

    -1.4352  -1.3612   3.2072   3.5503   7.1488   7.5693  16.1689  16.3908

          k = 1.0000 0.1000 0.1000 (  1596 PWs)   bands (ev):

    -1.4536  -1.3196   3.0193   3.5813   7.1847   7.8867  15.8777  16.2082

          k = 1.0000 0.1250 0.1250 (  1586 PWs)   bands (ev):

    -1.4805  -1.2661   2.8193   3.6209   7.2306   8.2560  15.5647  15.9982

          k = 1.0000 0.1500 0.1500 (  1594 PWs)   bands (ev):

    -1.5181  -1.2007   2.6214   3.6691   7.2865   8.6650  15.2414  15.7697

          k = 1.0000 0.1750 0.1750 (  1600 PWs)   bands (ev):

    -1.5689  -1.1235   2.4365   3.7257   7.3521   9.1050  14.9146  15.4949

          k = 1.0000 0.2000 0.2000 (  1596 PWs)   bands (ev):

    -1.6354  -1.0346   2.2727   3.7904   7.4273   9.5695  14.5884  15.1539

          k = 1.0000 0.2250 0.2250 (  1596 PWs)   bands (ev):

    -1.7195  -0.9338   2.1361   3.8630   7.5118  10.0535  14.2655  14.8205

          k = 1.0000 0.2500 0.2500 (  1580 PWs)   bands (ev):

    -1.8226  -0.8214   2.0307   3.9432   7.6053  10.5526  13.9479  14.4974

          k = 0.9667 0.2417 0.2417 (  1592 PWs)   bands (ev):

    -1.8271  -0.8227   2.0767   3.9197   7.5790  10.3906  13.9688  14.3856

          k = 0.9333 0.2333 0.2333 (  1593 PWs)   bands (ev):

    -1.9153  -0.7449   2.1519   3.9052   7.5654  10.2418  13.8757  14.1719

          k = 0.9000 0.2250 0.2250 (  1595 PWs)   bands (ev):

    -2.0645  -0.6064   2.2520   3.8999   7.5642  10.1072  13.7376  13.9492

          k = 0.8667 0.2167 0.2167 (  1595 PWs)   bands (ev):

    -2.2481  -0.4302   2.3728   3.9039   7.5750   9.9877  13.5841  13.7251

          k = 0.8333 0.2083 0.2083 (  1603 PWs)   bands (ev):

    -2.4494  -0.2302   2.5111   3.9173   7.5973   9.8846  13.4262  13.5013

          k = 0.8000 0.2000 0.2000 (  1603 PWs)   bands (ev):

    -2.6587  -0.0136   2.6641   3.9401   7.6300   9.7990  13.2679  13.2785

          k = 0.7667 0.1917 0.1917 (  1597 PWs)   bands (ev):

    -2.8705   0.2158   2.8293   3.9725   7.6721   9.7325  13.0570  13.1107

          k = 0.7333 0.1833 0.1833 (  1598 PWs)   bands (ev):

    -3.0812   0.4557   3.0046   4.0143   7.7220   9.6869  12.8370  12.9545

          k = 0.7000 0.1750 0.1750 (  1598 PWs)   bands (ev):

    -3.2885   0.7050   3.1882   4.0656   7.7778   9.6643  12.6188  12.7987

          k = 0.6667 0.1667 0.1667 (  1596 PWs)   bands (ev):

    -3.4908   0.9628   3.3783   4.1264   7.8375   9.6667  12.4025  12.6423

          k = 0.6333 0.1583 0.1583 (  1592 PWs)   bands (ev):

    -3.6868   1.2285   3.5735   4.1965   7.8989   9.6960  12.1885  12.4836

          k = 0.6000 0.1500 0.1500 (  1592 PWs)   bands (ev):

    -3.8756   1.5018   3.7721   4.2758   7.9603   9.7534  11.9773  12.3209

          k = 0.5667 0.1417 0.1417 (  1594 PWs)   bands (ev):

    -4.0565   1.7823   3.9728   4.3642   8.0205   9.8391  11.7697  12.1524

          k = 0.5333 0.1333 0.1333 (  1592 PWs)   bands (ev):

    -4.2289   2.0696   4.1742   4.4615   8.0789   9.9513  11.5671  11.9760

          k = 0.5000 0.1250 0.1250 (  1588 PWs)   bands (ev):

    -4.3924   2.3634   4.3752   4.5674   8.1359  10.0860  11.3722  11.7902

          k = 0.4667 0.1167 0.1167 (  1588 PWs)   bands (ev):

    -4.5465   2.6632   4.5745   4.6817   8.1925  10.2339  11.1913  11.5939

          k = 0.4333 0.1083 0.1083 (  1585 PWs)   bands (ev):

    -4.6910   2.9685   4.7708   4.8040   8.2497  10.3723  11.0427  11.3868

          k = 0.4000 0.1000 0.1000 (  1583 PWs)   bands (ev):

    -4.8256   3.2788   4.9337   4.9631   8.3089  10.4415  10.9796  11.1694

          k = 0.3667 0.0917 0.0917 (  1583 PWs)   bands (ev):

    -4.9501   3.5934   5.0702   5.1502   8.3707  10.3826  10.9432  11.0502

          k = 0.3333 0.0833 0.0833 (  1577 PWs)   bands (ev):

    -5.0643   3.9110   5.2127   5.3307   8.4357  10.2477  10.7104  11.1839

          k = 0.3000 0.0750 0.0750 (  1573 PWs)   bands (ev):

    -5.1680   4.2306   5.3601   5.5034   8.5039  10.0901  10.4741  11.2953

          k = 0.2667 0.0667 0.0667 (  1576 PWs)   bands (ev):

    -5.2611   4.5502   5.5109   5.6668   8.5746   9.9280  10.2376  11.3196

          k = 0.2333 0.0583 0.0583 (  1570 PWs)   bands (ev):

    -5.3435   4.8673   5.6632   5.8193   8.6467   9.7680  10.0050  11.2234

          k = 0.2000 0.0500 0.0500 (  1568 PWs)   bands (ev):

    -5.4151   5.1784   5.8144   5.9589   8.7183   9.6129   9.7806  11.0322

          k = 0.1667 0.0417 0.0417 (  1569 PWs)   bands (ev):

    -5.4758   5.4782   5.9607   6.0837   8.7868   9.4643   9.5697  10.7979

          k = 0.1333 0.0333 0.0333 (  1573 PWs)   bands (ev):

    -5.5256   5.7590   6.0973   6.1911   8.8494   9.3238   9.3786  10.5618

          k = 0.1000 0.0250 0.0250 (  1579 PWs)   bands (ev):

    -5.5643   6.0094   6.2174   6.2786   8.9027   9.1945   9.2150  10.3522

          k = 0.0667 0.0167 0.0167 (  1592 PWs)   bands (ev):

    -5.5920   6.2130   6.3131   6.3435   8.9436   9.0841   9.0877  10.1893

          k = 0.0333 0.0083 0.0083 (  1613 PWs)   bands (ev):

    -5.6087   6.3489   6.3754   6.3835   8.9693   9.0062   9.0065  10.0868

          k = 0.0000 0.0000 0.0000 (  1591 PWs)   bands (ev):

    -5.6142   6.3971   6.3971   6.3971   8.9781   8.9781   8.9781  10.0519

     Writing output data file ./tmp/silicon.save/

     init_run     :      0.18s CPU      0.19s WALL (       1 calls)
     electrons    :     22.39s CPU     23.17s WALL (       1 calls)

     Called by init_run:
     wfcinit      :      0.00s CPU      0.00s WALL (       1 calls)
     wfcinit:atom :      0.02s CPU      0.02s WALL (      91 calls)
     wfcinit:wfcr :      0.92s CPU      0.93s WALL (      91 calls)
     potinit      :      0.08s CPU      0.09s WALL (       1 calls)
     hinit0       :      0.07s CPU      0.07s WALL (       1 calls)

     Called by electrons:
     c_bands      :     22.39s CPU     23.17s WALL (       1 calls)
     v_of_rho     :      0.07s CPU      0.07s WALL (       1 calls)
     v_h          :      0.00s CPU      0.00s WALL (       1 calls)
     v_xc         :      0.06s CPU      0.07s WALL (       1 calls)

     Called by c_bands:
     init_us_2    :      0.02s CPU      0.02s WALL (      91 calls)
     cegterg      :     21.35s CPU     21.43s WALL (     199 calls)

     Called by sum_band:

     Called by *egterg:
     cdiaghg      :      0.23s CPU      0.23s WALL (    2979 calls)
     cegterg:over :      0.32s CPU      0.33s WALL (    2888 calls)
     cegterg:upda :      0.28s CPU      0.28s WALL (    2888 calls)
     cegterg:last :      0.42s CPU      0.42s WALL (    1953 calls)
     h_psi        :     20.69s CPU     20.77s WALL (    3178 calls)
     g_psi        :      0.17s CPU      0.17s WALL (    2888 calls)

     Called by h_psi:
     h_psi:calbec :      0.16s CPU      0.16s WALL (    3178 calls)
     vloc_psi     :     20.33s CPU     20.42s WALL (    3178 calls)
     add_vuspsi   :      0.15s CPU      0.15s WALL (    3178 calls)

     General routines
     calbec       :      0.15s CPU      0.15s WALL (    3178 calls)
     fft          :      0.04s CPU      0.04s WALL (      11 calls)
     ffts         :      0.01s CPU      0.01s WALL (       1 calls)
     fftw         :     18.59s CPU     18.67s WALL (   33266 calls)
     interpolate  :      0.01s CPU      0.01s WALL (       1 calls)
     davcio       :      0.01s CPU      0.69s WALL (     182 calls)

     Parallel routines

     PWSCF        :     22.74s CPU     24.38s WALL


   This run was terminated on:  23:14:24  19Sep2022            

=------------------------------------------------------------------------------=
   JOB DONE.
=------------------------------------------------------------------------------=
