
     Program BANDS v.6.7MaX starts on 19Sep2022 at 23:16:42 

     This program is part of the open-source Quantum ESPRESSO suite
     for quantum simulation of materials; please cite
         "P. Giannozzi et al., J. Phys.:Condens. Matter 21 395502 (2009);
         "P. Giannozzi et al., J. Phys.:Condens. Matter 29 465901 (2017);
          URL http://www.quantum-espresso.org", 
     in publications or presentations arising from this work. More details at
     http://www.quantum-espresso.org/quote

     Parallel version (MPI), running on     1 processors

     MPI processes distributed on     1 nodes

     Reading xml data from directory:

     ./tmp/silicon.save/

     IMPORTANT: XC functional enforced from input :
     Exchange-correlation= PBE
                           (   1   4   3   4   0   0   0)
     Any further DFT definition will be discarded
     Please, verify this is what you really want


     G-vector sticks info
     --------------------
     sticks:   dense  smooth     PW     G-vecs:    dense   smooth      PW
     Sum        1417     721    211                35749    12627    2085

     Reading collected, re-writing distributed wavefunctions
     high-symmetry point:  0.5000 0.5000 0.5000   x coordinate   0.0000
     high-symmetry point:  0.0000 0.0000 0.0000   x coordinate   0.8660
     high-symmetry point:  1.0000 0.0000 0.0000   x coordinate   1.8660
     high-symmetry point:  1.0000 0.2500 0.2500   x coordinate   2.2196
     high-symmetry point:  0.0000 0.0000 0.0000   x coordinate   3.2802

     Plottable bands (eV) written to file Si_bands.dat.gnu
     Bands written to file Si_bands.dat

 **************************************************************************

                    xk=(   0.50000,   0.50000,   0.50000  )

     zone border point and non-symmorphic group 
     symmetry decomposition not available

 **************************************************************************

 **************************************************************************

                    xk=(   0.47500,   0.47500,   0.47500  )

     point group C_3v (3m)  
     there are  3 classes
     the character table:

       E     2C3   3s_v 
A_1    1.00  1.00  1.00
A_2    1.00  1.00 -1.00
E      2.00 -1.00  0.00

     the symmetry operations in each class and the name of the first element:

     E        1
                                                                 
     2C3      2    3
                                                                 
     3s_v     4    5    6
                                                                 

     Band symmetry, C_3v (3m)   point group:

     e(  1 -  1) =     -3.27469  eV     1   --> A_1  L_1       
     e(  2 -  2) =     -0.56185  eV     1   --> A_1  L_1       
     e(  3 -  4) =      5.19302  eV     2   --> E    L_3       
     e(  5 -  5) =      8.05592  eV     1   --> A_1  L_1       
     e(  6 -  7) =      9.74563  eV     2   --> E    L_3       
     e(  8 -  8) =     14.17905  eV     1   --> A_1  L_1       

 **************************************************************************

 **************************************************************************

                    xk=(   0.45000,   0.45000,   0.45000  )

     Band symmetry, C_3v (3m)   point group:

     e(  1 -  1) =     -3.37680  eV     1   --> A_1  L_1       
     e(  2 -  2) =     -0.41306  eV     1   --> A_1  L_1       
     e(  3 -  4) =      5.20654  eV     2   --> E    L_3       
     e(  5 -  5) =      8.07112  eV     1   --> A_1  L_1       
     e(  6 -  7) =      9.76159  eV     2   --> E    L_3       
     e(  8 -  8) =     14.20335  eV     1   --> A_1  L_1       

 **************************************************************************

 **************************************************************************

                    xk=(   0.42500,   0.42500,   0.42500  )

     Band symmetry, C_3v (3m)   point group:

     e(  1 -  1) =     -3.52584  eV     1   --> A_1  L_1       
     e(  2 -  2) =     -0.18637  eV     1   --> A_1  L_1       
     e(  3 -  4) =      5.22907  eV     2   --> E    L_3       
     e(  5 -  5) =      8.09637  eV     1   --> A_1  L_1       
     e(  6 -  7) =      9.78694  eV     2   --> E    L_3       
     e(  8 -  8) =     14.24156  eV     1   --> A_1  L_1       

 **************************************************************************

 **************************************************************************

                    xk=(   0.40000,   0.40000,   0.40000  )

     Band symmetry, C_3v (3m)   point group:

     e(  1 -  1) =     -3.70294  eV     1   --> A_1  L_1       
     e(  2 -  2) =      0.09919  eV     1   --> A_1  L_1       
     e(  3 -  4) =      5.26057  eV     2   --> E    L_3       
     e(  5 -  5) =      8.13156  eV     1   --> A_1  L_1       
     e(  6 -  7) =      9.81970  eV     2   --> E    L_3       
     e(  8 -  8) =     14.28916  eV     1   --> A_1  L_1       

 **************************************************************************

 **************************************************************************

                    xk=(   0.37500,   0.37500,   0.37500  )

     Band symmetry, C_3v (3m)   point group:

     e(  1 -  1) =     -3.89366  eV     1   --> A_1  L_1       
     e(  2 -  2) =      0.42886  eV     1   --> A_1  L_1       
     e(  3 -  4) =      5.30098  eV     2   --> E    L_3       
     e(  5 -  5) =      8.17649  eV     1   --> A_1  L_1       
     e(  6 -  7) =      9.85690  eV     2   --> E    L_3       
     e(  8 -  8) =     14.33664  eV     1   --> A_1  L_1       

 **************************************************************************

 **************************************************************************

                    xk=(   0.35000,   0.35000,   0.35000  )

     Band symmetry, C_3v (3m)   point group:

     e(  1 -  1) =     -4.08814  eV     1   --> A_1  L_1       
     e(  2 -  2) =      0.79240  eV     1   --> A_1  L_1       
     e(  3 -  4) =      5.35020  eV     2   --> E    L_3       
     e(  5 -  5) =      8.23087  eV     1   --> A_1  L_1       
     e(  6 -  7) =      9.89442  eV     2   --> E    L_3       
     e(  8 -  8) =     14.36313  eV     1   --> A_1  L_1       

 **************************************************************************

 **************************************************************************

                    xk=(   0.32500,   0.32500,   0.32500  )

     Band symmetry, C_3v (3m)   point group:

     e(  1 -  1) =     -4.27994  eV     1   --> A_1  L_1       
     e(  2 -  2) =      1.18285  eV     1   --> A_1  L_1       
     e(  3 -  4) =      5.40808  eV     2   --> E    L_3       
     e(  5 -  5) =      8.29431  eV     1   --> A_1  L_1       
     e(  6 -  7) =      9.92688  eV     2   --> E    L_3       
     e(  8 -  8) =     14.30927  eV     1   -->   ?

 **************************************************************************

 **************************************************************************

                    xk=(   0.30000,   0.30000,   0.30000  )

     Band symmetry, C_3v (3m)   point group:

     e(  1 -  1) =     -4.46481  eV     1   --> A_1  L_1       
     e(  2 -  2) =      1.59527  eV     1   --> A_1  L_1       
     e(  3 -  4) =      5.47433  eV     2   --> E    L_3       
     e(  5 -  5) =      8.36621  eV     1   --> A_1  L_1       
     e(  6 -  7) =      9.94765  eV     2   --> E    L_3       
     e(  8 -  8) =     14.01931  eV     1   -->   ?

 **************************************************************************

 **************************************************************************

                    xk=(   0.27500,   0.27500,   0.27500  )

     Band symmetry, C_3v (3m)   point group:

     e(  1 -  1) =     -4.63990  eV     1   --> A_1  L_1       
     e(  2 -  2) =      2.02595  eV     1   --> A_1  L_1       
     e(  3 -  4) =      5.54856  eV     2   --> E    L_3       
     e(  5 -  5) =      8.44578  eV     1   --> A_1  L_1       
     e(  6 -  7) =      9.94940  eV     2   --> E    L_3       
     e(  8 -  8) =     13.78406  eV     1   -->   ?

 **************************************************************************

 **************************************************************************

                    xk=(   0.25000,   0.25000,   0.25000  )

     Band symmetry, C_3v (3m)   point group:

     e(  1 -  1) =     -4.80326  eV     1   --> A_1  L_1       
     e(  2 -  2) =      2.47179  eV     1   --> A_1  L_1       
     e(  3 -  4) =      5.63018  eV     2   --> E    L_3       
     e(  5 -  5) =      8.53189  eV     1   --> A_1  L_1       
     e(  6 -  7) =      9.92531  eV     2   --> E    L_3       
     e(  8 -  8) =     13.48712  eV     1   --> A_1  L_1       

 **************************************************************************

 **************************************************************************

                    xk=(   0.22500,   0.22500,   0.22500  )

     Band symmetry, C_3v (3m)   point group:

     e(  1 -  1) =     -4.95352  eV     1   --> A_1  L_1       
     e(  2 -  2) =      2.92990  eV     1   --> A_1  L_1       
     e(  3 -  4) =      5.71837  eV     2   --> E    L_3       
     e(  5 -  5) =      8.62300  eV     1   --> A_1  L_1       
     e(  6 -  7) =      9.87090  eV     2   --> E    L_3       
     e(  8 -  8) =     13.07104  eV     1   --> A_1  L_1       

 **************************************************************************

 **************************************************************************

                    xk=(   0.20000,   0.20000,   0.20000  )

     Band symmetry, C_3v (3m)   point group:

     e(  1 -  1) =     -5.08970  eV     1   --> A_1  L_1       
     e(  2 -  2) =      3.39724  eV     1   --> A_1  L_1       
     e(  3 -  4) =      5.81191  eV     2   --> E    L_3       
     e(  5 -  5) =      8.71696  eV     1   --> A_1  L_1       
     e(  6 -  7) =      9.78579  eV     2   --> E    L_3       
     e(  8 -  8) =     12.63657  eV     1   --> A_1  L_1       

 **************************************************************************

 **************************************************************************

                    xk=(   0.17500,   0.17500,   0.17500  )

     Band symmetry, C_3v (3m)   point group:

     e(  1 -  1) =     -5.21107  eV     1   --> A_1  L_1       
     e(  2 -  2) =      3.87025  eV     1   --> A_1  L_1       
     e(  3 -  4) =      5.90918  eV     2   --> E    L_3       
     e(  5 -  5) =      8.81075  eV     1   --> A_1  L_1       
     e(  6 -  7) =      9.67441  eV     2   --> E    L_3       
     e(  8 -  8) =     12.19426  eV     1   --> A_1  L_1       

 **************************************************************************

 **************************************************************************

                    xk=(   0.15000,   0.15000,   0.15000  )

     Band symmetry, C_3v (3m)   point group:

     e(  1 -  1) =     -5.31708  eV     1   --> A_1  L_1       
     e(  2 -  2) =      4.34427  eV     1   --> A_1  L_1       
     e(  3 -  4) =      6.00789  eV     2   --> E    L_3       
     e(  5 -  5) =      8.90011  eV     1   --> A_1  L_1       
     e(  6 -  7) =      9.54497  eV     2   --> E    L_3       
     e(  8 -  8) =     11.75206  eV     1   --> A_1  L_1       

 **************************************************************************

 **************************************************************************

                    xk=(   0.12500,   0.12500,   0.12500  )

     Band symmetry, C_3v (3m)   point group:

     e(  1 -  1) =     -5.40735  eV     1   --> A_1  L_1       
     e(  2 -  2) =      4.81273  eV     1   --> A_1  L_1       
     e(  3 -  4) =      6.10498  eV     2   --> E    L_3       
     e(  5 -  5) =      8.97890  eV     1   --> A_1  L_1       
     e(  6 -  7) =      9.40787  eV     2   --> E    L_3       
     e(  8 -  8) =     11.31944  eV     1   --> A_1  L_1       

 **************************************************************************

 **************************************************************************

                    xk=(   0.10000,   0.10000,   0.10000  )

     Band symmetry, C_3v (3m)   point group:

     e(  1 -  1) =     -5.48156  eV     1   --> A_1  L_1       
     e(  2 -  2) =      5.26554  eV     1   --> A_1  L_1       
     e(  3 -  4) =      6.19640  eV     2   --> E    L_3       
     e(  5 -  5) =      9.03816  eV     1   --> A_1  L_1       
     e(  6 -  7) =      9.27418  eV     2   --> E    L_3       
     e(  8 -  8) =     10.91109  eV     1   --> A_1  L_1       

 **************************************************************************

 **************************************************************************

                    xk=(   0.07500,   0.07500,   0.07500  )

     Band symmetry, C_3v (3m)   point group:

     e(  1 -  1) =     -5.53949  eV     1   --> A_1  L_1       
     e(  2 -  2) =      5.68619  eV     1   --> A_1  L_1       
     e(  3 -  4) =      6.27708  eV     2   --> E    L_3       
     e(  5 -  5) =      9.06563  eV     1   --> A_1  L_1       
     e(  6 -  7) =      9.15486  eV     2   --> E    L_3       
     e(  8 -  8) =     10.55093  eV     1   --> A_1  L_1       

 **************************************************************************

 **************************************************************************

                    xk=(   0.05000,   0.05000,   0.05000  )

     Band symmetry, C_3v (3m)   point group:

     e(  1 -  1) =     -5.58097  eV     1   --> A_1  L_1       
     e(  2 -  2) =      6.04677  eV     1   --> A_1  L_1       
     e(  3 -  4) =      6.34113  eV     2   --> E    L_3       
     e(  5 -  5) =      9.05062  eV     1   --> A_1  L_1       
     e(  6 -  7) =      9.06023  eV     2   --> E    L_3       
     e(  8 -  8) =     10.27271  eV     1   --> A_1  L_1       

 **************************************************************************

 **************************************************************************

                    xk=(   0.02500,   0.02500,   0.02500  )

     Band symmetry, C_3v (3m)   point group:

     e(  1 -  1) =     -5.60591  eV     1   --> A_1  L_1       
     e(  2 -  2) =      6.30230  eV     1   --> A_1  L_1       
     e(  3 -  4) =      6.38266  eV     2   --> E    L_3       
     e(  5 -  6) =      8.99920  eV     2   --> E    L_3       
     e(  7 -  7) =      9.00483  eV     1   --> A_1  L_1       
     e(  8 -  8) =     10.10541  eV     1   --> A_1  L_1       

 **************************************************************************

 **************************************************************************

                    xk=(   0.00000,   0.00000,   0.00000  )

     point group O_h (m-3m) 
     there are 10 classes
     the character table:

       E     8C3   3C2   6C4   6C2'  i     8S6   3s_h  6S4   6s_d 
A_1g   1.00  1.00  1.00  1.00  1.00  1.00  1.00  1.00  1.00  1.00
A_2g   1.00  1.00  1.00 -1.00 -1.00  1.00  1.00  1.00 -1.00 -1.00
E_g    2.00 -1.00  2.00  0.00  0.00  2.00 -1.00  2.00  0.00  0.00
T_1g   3.00  0.00 -1.00  1.00 -1.00  3.00  0.00 -1.00  1.00 -1.00
T_2g   3.00  0.00 -1.00 -1.00  1.00  3.00  0.00 -1.00 -1.00  1.00
A_1u   1.00  1.00  1.00  1.00  1.00 -1.00 -1.00 -1.00 -1.00 -1.00
A_2u   1.00  1.00  1.00 -1.00 -1.00 -1.00 -1.00 -1.00  1.00  1.00
E_u    2.00 -1.00  2.00  0.00  0.00 -2.00  1.00 -2.00  0.00  0.00
T_1u   3.00  0.00 -1.00  1.00 -1.00 -3.00  0.00  1.00 -1.00  1.00
T_2u   3.00  0.00 -1.00 -1.00  1.00 -3.00  0.00  1.00  1.00 -1.00

     the symmetry operations in each class and the name of the first element:

     E        1
                                                                 
     8C3     17   19   20   18   24   21   22   23
                                                                 
     3C2      2    4    3
                                                                 
     6C4      7    8   15   16   12   11
                                                                 
     6C2'     5    6   14   13   10    9
                                                                 
     i       25
                                                                 
     8S6     41   43   44   42   48   45   46   47
                                                                 
     3s_h    26   28   27
                                                                 
     6S4     31   32   39   40   36   35
                                                                 
     6s_d    29   30   38   37   34   33
                                                                 

     Band symmetry, O_h (m-3m)  point group:

     e(  1 -  1) =     -5.61423  eV     1   --> A_1g G_1   G_1+
     e(  2 -  4) =      6.39708  eV     3   --> T_2g G_25' G_5+
     e(  5 -  7) =      8.97809  eV     3   --> T_1u G_15  G_4-
     e(  8 -  8) =     10.05188  eV     1   --> A_2u G_2'  G_2-

 **************************************************************************

 **************************************************************************

                    xk=(   0.03333,   0.00000,   0.00000  )

     point group C_4v (4mm) 
     there are  5 classes
     the character table:

       E     2C4   C2    2s_v  2s_d 
A_1    1.00  1.00  1.00  1.00  1.00
A_2    1.00  1.00  1.00 -1.00 -1.00
B_1    1.00 -1.00  1.00  1.00 -1.00
B_2    1.00 -1.00  1.00 -1.00  1.00
E      2.00  0.00 -2.00  0.00  0.00

     the symmetry operations in each class and the name of the first element:

     E        1
                                                                 
     2C4      3    4
                                                                 
     C2       2
                                                                 
     2s_v     5    6
                                                                 
     2s_d     7    8
                                                                 

     Band symmetry, C_4v (4mm)  point group:

     e(  1 -  1) =     -5.60930  eV     1   --> A_1  G_1 D_1   
     e(  2 -  2) =      6.36561  eV     1   --> B_2  G_4 D_2'  
     e(  3 -  4) =      6.37560  eV     2   --> E    G_5 D_5   
     e(  5 -  5) =      8.96595  eV     1   --> A_1  G_1 D_1   
     e(  6 -  7) =      9.00563  eV     2   --> E    G_5 D_5   
     e(  8 -  8) =     10.08269  eV     1   --> B_2  G_4 D_2'  

 **************************************************************************

 **************************************************************************

                    xk=(   0.06667,   0.00000,   0.00000  )

     Band symmetry, C_4v (4mm)  point group:

     e(  1 -  1) =     -5.59451  eV     1   --> A_1  G_1 D_1   
     e(  2 -  2) =      6.27441  eV     1   --> B_2  G_4 D_2'  
     e(  3 -  4) =      6.31386  eV     2   --> E    G_5 D_5   
     e(  5 -  5) =      8.93018  eV     1   --> A_1  G_1 D_1   
     e(  6 -  7) =      9.08556  eV     2   --> E    G_5 D_5   
     e(  8 -  8) =     10.17119  eV     1   --> B_2  G_4 D_2'  

 **************************************************************************

 **************************************************************************

                    xk=(   0.10000,   0.00000,   0.00000  )

     Band symmetry, C_4v (4mm)  point group:

     e(  1 -  1) =     -5.56987  eV     1   --> A_1  G_1 D_1   
     e(  2 -  2) =      6.13176  eV     1   --> B_2  G_4 D_2'  
     e(  3 -  4) =      6.21868  eV     2   --> E    G_5 D_5   
     e(  5 -  5) =      8.87261  eV     1   --> A_1  G_1 D_1   
     e(  6 -  7) =      9.21101  eV     2   --> E    G_5 D_5   
     e(  8 -  8) =     10.30689  eV     1   --> B_2  G_4 D_2'  

 **************************************************************************

 **************************************************************************

                    xk=(   0.13333,   0.00000,   0.00000  )

     Band symmetry, C_4v (4mm)  point group:

     e(  1 -  1) =     -5.53540  eV     1   --> A_1  G_1 D_1   
     e(  2 -  2) =      5.94791  eV     1   --> B_2  G_4 D_2'  
     e(  3 -  4) =      6.09841  eV     2   --> E    G_5 D_5   
     e(  5 -  5) =      8.79598  eV     1   --> A_1  G_1 D_1   
     e(  6 -  7) =      9.37356  eV     2   --> E    G_5 D_5   
     e(  8 -  8) =     10.47492  eV     1   --> B_2  G_4 D_2'  

 **************************************************************************

 **************************************************************************

                    xk=(   0.16667,   0.00000,   0.00000  )

     Band symmetry, C_4v (4mm)  point group:

     e(  1 -  1) =     -5.49112  eV     1   --> A_1  G_1 D_1   
     e(  2 -  2) =      5.73266  eV     1   --> B_2  G_4 D_2'  
     e(  3 -  4) =      5.96085  eV     2   --> E    G_5 D_5   
     e(  5 -  5) =      8.70353  eV     1   --> A_1  G_1 D_1   
     e(  6 -  7) =      9.56532  eV     2   --> E    G_5 D_5   
     e(  8 -  8) =     10.65702  eV     1   --> B_2  G_4 D_2'  

 **************************************************************************

 **************************************************************************

                    xk=(   0.20000,   0.00000,   0.00000  )

     Band symmetry, C_4v (4mm)  point group:

     e(  1 -  1) =     -5.43706  eV     1   --> A_1  G_1 D_1   
     e(  2 -  2) =      5.49406  eV     1   --> B_2  G_4 D_2'  
     e(  3 -  4) =      5.81236  eV     2   --> E    G_5 D_5   
     e(  5 -  5) =      8.59865  eV     1   --> A_1  G_1 D_1   
     e(  6 -  7) =      9.77983  eV     2   --> E    G_5 D_5   
     e(  8 -  8) =     10.82967  eV     1   --> B_2  G_4 D_2'  

 **************************************************************************

 **************************************************************************

                    xk=(   0.23333,   0.00000,   0.00000  )

     Band symmetry, C_4v (4mm)  point group:

     e(  1 -  1) =     -5.37324  eV     1   --> A_1  G_1 D_1   
     e(  2 -  2) =      5.23827  eV     1   --> B_2  G_4 D_2'  
     e(  3 -  4) =      5.65774  eV     2   --> E    G_5 D_5   
     e(  5 -  5) =      8.48465  eV     1   --> A_1  G_1 D_1   
     e(  6 -  7) =     10.01214  eV     2   --> E    G_5 D_5   
     e(  8 -  8) =     10.96047  eV     1   --> B_2  G_4 D_2'  

 **************************************************************************

 **************************************************************************

                    xk=(   0.26667,   0.00000,   0.00000  )

     Band symmetry, C_4v (4mm)  point group:

     e(  1 -  1) =     -5.29971  eV     1   --> A_1  G_1 D_1   
     e(  2 -  2) =      4.96986  eV     1   --> B_2  G_4 D_2'  
     e(  3 -  4) =      5.50058  eV     2   --> E    G_5 D_5   
     e(  5 -  5) =      8.36455  eV     1   --> A_1  G_1 D_1   
     e(  6 -  7) =     10.25854  eV     2   --> E    G_5 D_5   
     e(  8 -  8) =     11.01002  eV     1   --> B_2  G_4 D_2'  

 **************************************************************************

 **************************************************************************

                    xk=(   0.30000,   0.00000,   0.00000  )

     Band symmetry, C_4v (4mm)  point group:

     e(  1 -  1) =     -5.21651  eV     1   --> A_1  G_1 D_1   
     e(  2 -  2) =      4.69211  eV     1   --> B_2  G_4 D_2'  
     e(  3 -  4) =      5.34348  eV     2   --> E    G_5 D_5   
     e(  5 -  5) =      8.24105  eV     1   --> A_1  G_1 D_1   
     e(  6 -  7) =     10.51626  eV     2   --> E    G_5 D_5   
     e(  8 -  8) =     10.95303  eV     1   --> B_2  G_4 D_2'  

 **************************************************************************

 **************************************************************************

                    xk=(   0.33333,   0.00000,   0.00000  )

     Band symmetry, C_4v (4mm)  point group:

     e(  1 -  1) =     -5.12370  eV     1   --> A_1  G_1 D_1   
     e(  2 -  2) =      4.40743  eV     1   --> B_2  G_4 D_2'  
     e(  3 -  4) =      5.18840  eV     2   --> E    G_5 D_5   
     e(  5 -  5) =      8.11646  eV     1   --> A_1  G_1 D_1   
     e(  6 -  7) =     10.78322  eV     2   --> E    G_5 D_5   
     e(  8 -  8) =     10.80092  eV     1   --> B_2  G_4 D_2'  

 **************************************************************************

 **************************************************************************

                    xk=(   0.36667,   0.00000,   0.00000  )

     Band symmetry, C_4v (4mm)  point group:

     e(  1 -  1) =     -5.02134  eV     1   --> A_1  G_1 D_1   
     e(  2 -  2) =      4.11756  eV     1   --> B_2  G_4 D_2'  
     e(  3 -  4) =      5.03676  eV     2   --> E    G_5 D_5   
     e(  5 -  5) =      7.99277  eV     1   --> A_1  G_1 D_1   
     e(  6 -  6) =     10.58680  eV     1   --> B_2  G_4 D_2'  
     e(  7 -  8) =     11.05783  eV     2   --> E    G_5 D_5   

 **************************************************************************

 **************************************************************************

                    xk=(   0.40000,   0.00000,   0.00000  )

     Band symmetry, C_4v (4mm)  point group:

     e(  1 -  1) =     -4.90950  eV     1   --> A_1  G_1 D_1   
     e(  2 -  2) =      3.82380  eV     1   --> B_2  G_4 D_2'  
     e(  3 -  4) =      4.88969  eV     2   --> E    G_5 D_5   
     e(  5 -  5) =      7.87165  eV     1   --> A_1  G_1 D_1   
     e(  6 -  6) =     10.33973  eV     1   --> B_2  G_4 D_2'  
     e(  7 -  8) =     11.33886  eV     2   --> E    G_5 D_5   

 **************************************************************************

 **************************************************************************

                    xk=(   0.43333,   0.00000,   0.00000  )

     Band symmetry, C_4v (4mm)  point group:

     e(  1 -  1) =     -4.78825  eV     1   --> A_1  G_1 D_1   
     e(  2 -  2) =      3.52715  eV     1   --> B_2  G_4 D_2'  
     e(  3 -  4) =      4.74802  eV     2   --> E    G_5 D_5   
     e(  5 -  5) =      7.75453  eV     1   --> A_1  G_1 D_1   
     e(  6 -  6) =     10.07823  eV     1   --> B_2  G_4 D_2'  
     e(  7 -  8) =     11.62534  eV     2   --> E    G_5 D_5   

 **************************************************************************

 **************************************************************************

                    xk=(   0.46667,   0.00000,   0.00000  )

     Band symmetry, C_4v (4mm)  point group:

     e(  1 -  1) =     -4.65769  eV     1   --> A_1  G_1 D_1   
     e(  2 -  2) =      3.22840  eV     1   --> B_2  G_4 D_2'  
     e(  3 -  4) =      4.61241  eV     2   --> E    G_5 D_5   
     e(  5 -  5) =      7.64261  eV     1   --> A_1  G_1 D_1   
     e(  6 -  6) =      9.81324  eV     1   --> B_2  G_4 D_2'  
     e(  7 -  8) =     11.91652  eV     2   --> E    G_5 D_5   

 **************************************************************************

 **************************************************************************

                    xk=(   0.50000,   0.00000,   0.00000  )

     Band symmetry, C_4v (4mm)  point group:

     e(  1 -  1) =     -4.51790  eV     1   --> A_1  G_1 D_1   
     e(  2 -  2) =      2.92820  eV     1   --> B_2  G_4 D_2'  
     e(  3 -  4) =      4.48341  eV     2   --> E    G_5 D_5   
     e(  5 -  5) =      7.53689  eV     1   --> A_1  G_1 D_1   
     e(  6 -  6) =      9.55132  eV     1   --> B_2  G_4 D_2'  
     e(  7 -  8) =     12.21181  eV     2   --> E    G_5 D_5   

 **************************************************************************

 **************************************************************************

                    xk=(   0.53333,   0.00000,   0.00000  )

     Band symmetry, C_4v (4mm)  point group:

     e(  1 -  1) =     -4.36899  eV     1   --> A_1  G_1 D_1   
     e(  2 -  2) =      2.62711  eV     1   --> B_2  G_4 D_2'  
     e(  3 -  4) =      4.36143  eV     2   --> E    G_5 D_5   
     e(  5 -  5) =      7.43825  eV     1   --> A_1  G_1 D_1   
     e(  6 -  6) =      9.29654  eV     1   --> B_2  G_4 D_2'  
     e(  7 -  8) =     12.51072  eV     2   --> E    G_5 D_5   

 **************************************************************************

 **************************************************************************

                    xk=(   0.56667,   0.00000,   0.00000  )

     Band symmetry, C_4v (4mm)  point group:

     e(  1 -  1) =     -4.21107  eV     1   --> A_1  G_1 D_1   
     e(  2 -  2) =      2.32564  eV     1   --> B_2  G_4 D_2'  
     e(  3 -  4) =      4.24681  eV     2   --> E    G_5 D_5   
     e(  5 -  5) =      7.34745  eV     1   --> A_1  G_1 D_1   
     e(  6 -  6) =      9.05156  eV     1   --> B_2  G_4 D_2'  
     e(  7 -  8) =     12.81292  eV     2   --> E    G_5 D_5   

 **************************************************************************

 **************************************************************************

                    xk=(   0.60000,   0.00000,   0.00000  )

     Band symmetry, C_4v (4mm)  point group:

     e(  1 -  1) =     -4.04428  eV     1   --> A_1  G_1 D_1   
     e(  2 -  2) =      2.02427  eV     1   --> B_2  G_4 D_2'  
     e(  3 -  4) =      4.13985  eV     2   --> E    G_5 D_5   
     e(  5 -  5) =      7.26513  eV     1   --> A_1  G_1 D_1   
     e(  6 -  6) =      8.81813  eV     1   --> B_2  G_4 D_2'  
     e(  7 -  8) =     13.11811  eV     2   --> E    G_5 D_5   

 **************************************************************************

 **************************************************************************

                    xk=(   0.63333,   0.00000,   0.00000  )

     Band symmetry, C_4v (4mm)  point group:

     e(  1 -  1) =     -3.86874  eV     1   --> A_1  G_1 D_1   
     e(  2 -  2) =      1.72348  eV     1   --> B_2  G_4 D_2'  
     e(  3 -  4) =      4.04079  eV     2   --> E    G_5 D_5   
     e(  5 -  5) =      7.19187  eV     1   --> A_1  G_1 D_1   
     e(  6 -  6) =      8.59742  eV     1   --> B_2  G_4 D_2'  
     e(  7 -  8) =     13.42609  eV     2   --> E    G_5 D_5   

 **************************************************************************

 **************************************************************************

                    xk=(   0.66667,   0.00000,   0.00000  )

     Band symmetry, C_4v (4mm)  point group:

     e(  1 -  1) =     -3.68462  eV     1   --> A_1  G_1 D_1   
     e(  2 -  2) =      1.42374  eV     1   --> B_2  G_4 D_2'  
     e(  3 -  4) =      3.94980  eV     2   --> E    G_5 D_5   
     e(  5 -  5) =      7.12816  eV     1   --> A_1  G_1 D_1   
     e(  6 -  6) =      8.39021  eV     1   --> B_2  G_4 D_2'  
     e(  7 -  8) =     13.73670  eV     2   --> E    G_5 D_5   

 **************************************************************************

 **************************************************************************

                    xk=(   0.70000,   0.00000,   0.00000  )

     Band symmetry, C_4v (4mm)  point group:

     e(  1 -  1) =     -3.49206  eV     1   --> A_1  G_1 D_1   
     e(  2 -  2) =      1.12550  eV     1   --> B_2  G_4 D_2'  
     e(  3 -  4) =      3.86708  eV     2   --> E    G_5 D_5   
     e(  5 -  5) =      7.07448  eV     1   --> A_1  G_1 D_1   
     e(  6 -  6) =      8.19701  eV     1   --> B_2  G_4 D_2'  
     e(  7 -  8) =     14.04979  eV     2   --> E    G_5 D_5   

 **************************************************************************

 **************************************************************************

                    xk=(   0.73333,   0.00000,   0.00000  )

     Band symmetry, C_4v (4mm)  point group:

     e(  1 -  1) =     -3.29126  eV     1   --> A_1  G_1 D_1   
     e(  2 -  2) =      0.82924  eV     1   --> B_2  G_4 D_2'  
     e(  3 -  4) =      3.79274  eV     2   --> E    G_5 D_5   
     e(  5 -  5) =      7.03123  eV     1   --> A_1  G_1 D_1   
     e(  6 -  6) =      8.01813  eV     1   --> B_2  G_4 D_2'  
     e(  7 -  8) =     14.36522  eV     2   --> E    G_5 D_5   

 **************************************************************************

 **************************************************************************

                    xk=(   0.76667,   0.00000,   0.00000  )

     Band symmetry, C_4v (4mm)  point group:

     e(  1 -  1) =     -3.08240  eV     1   --> A_1  G_1 D_1   
     e(  2 -  2) =      0.53543  eV     1   --> B_2  G_4 D_2'  
     e(  3 -  4) =      3.72690  eV     2   --> E    G_5 D_5   
     e(  5 -  5) =      6.99880  eV     1   --> A_1  G_1 D_1   
     e(  6 -  6) =      7.85371  eV     1   --> B_2  G_4 D_2'  
     e(  7 -  8) =     14.68275  eV     2   --> E    G_5 D_5   

 **************************************************************************

 **************************************************************************

                    xk=(   0.80000,   0.00000,   0.00000  )

     Band symmetry, C_4v (4mm)  point group:

     e(  1 -  1) =     -2.86570  eV     1   --> A_1  G_1 D_1   
     e(  2 -  2) =      0.24453  eV     1   --> B_2  G_4 D_2'  
     e(  3 -  4) =      3.66967  eV     2   --> E    G_5 D_5   
     e(  5 -  5) =      6.97755  eV     1   --> A_1  G_1 D_1   
     e(  6 -  6) =      7.70380  eV     1   --> B_2  G_4 D_2'  
     e(  7 -  8) =     15.00203  eV     2   --> E    G_5 D_5   

 **************************************************************************

 **************************************************************************

                    xk=(   0.83333,   0.00000,   0.00000  )

     Band symmetry, C_4v (4mm)  point group:

     e(  1 -  1) =     -2.64138  eV     1   --> A_1  G_1 D_1   
     e(  2 -  2) =     -0.04300  eV     1   --> B_2  G_4 D_2'  
     e(  3 -  4) =      3.62112  eV     2   --> E    G_5 D_5   
     e(  5 -  5) =      6.96781  eV     1   --> A_1  G_1 D_1   
     e(  6 -  6) =      7.56834  eV     1   --> B_2  G_4 D_2'  
     e(  7 -  8) =     15.32237  eV     2   --> E    G_5 D_5   

 **************************************************************************

 **************************************************************************

                    xk=(   0.86667,   0.00000,   0.00000  )

     Band symmetry, C_4v (4mm)  point group:

     e(  1 -  1) =     -2.40969  eV     1   --> A_1  G_1 D_1   
     e(  2 -  2) =     -0.32671  eV     1   --> B_2  G_4 D_2'  
     e(  3 -  4) =      3.58131  eV     2   --> E    G_5 D_5   
     e(  5 -  5) =      6.96990  eV     1   --> A_1  G_1 D_1   
     e(  6 -  6) =      7.44723  eV     1   --> B_2  G_4 D_2'  
     e(  7 -  8) =     15.64242  eV     2   --> E    G_5 D_5   

 **************************************************************************

 **************************************************************************

                    xk=(   0.90000,   0.00000,   0.00000  )

     Band symmetry, C_4v (4mm)  point group:

     e(  1 -  1) =     -2.17088  eV     1   --> A_1  G_1 D_1   
     e(  2 -  2) =     -0.60616  eV     1   --> B_2  G_4 D_2'  
     e(  3 -  4) =      3.55030  eV     2   --> E    G_5 D_5   
     e(  5 -  5) =      6.98412  eV     1   --> A_1  G_1 D_1   
     e(  6 -  6) =      7.34030  eV     1   --> B_2  G_4 D_2'  
     e(  7 -  8) =     15.95912  eV     2   --> E    G_5 D_5   

 **************************************************************************

 **************************************************************************

                    xk=(   0.93333,   0.00000,   0.00000  )

     Band symmetry, C_4v (4mm)  point group:

     e(  1 -  1) =     -1.92526  eV     1   --> A_1  G_1 D_1   
     e(  2 -  2) =     -0.88092  eV     1   --> B_2  G_4 D_2'  
     e(  3 -  4) =      3.52812  eV     2   --> E    G_5 D_5   
     e(  5 -  5) =      7.01078  eV     1   --> A_1  G_1 D_1   
     e(  6 -  6) =      7.24737  eV     1   --> B_2  G_4 D_2'  
     e(  7 -  8) =     16.26442  eV     2   --> E    G_5 D_5   

 **************************************************************************

 **************************************************************************

                    xk=(   0.96667,   0.00000,   0.00000  )

     Band symmetry, C_4v (4mm)  point group:

     e(  1 -  1) =     -1.67311  eV     1   --> A_1  G_1 D_1   
     e(  2 -  2) =     -1.15058  eV     1   --> B_2  G_4 D_2'  
     e(  3 -  4) =      3.51481  eV     2   --> E    G_5 D_5   
     e(  5 -  5) =      7.05017  eV     1   --> A_1  G_1 D_1   
     e(  6 -  6) =      7.16819  eV     1   --> B_2  G_4 D_2'  
     e(  7 -  8) =     16.53152  eV     2   --> E    G_5 D_5   

 **************************************************************************

 **************************************************************************

                    xk=(   1.00000,   0.00000,   0.00000  )

     zone border point and non-symmorphic group 
     symmetry decomposition not available

 **************************************************************************

 **************************************************************************

                    xk=(   1.00000,   0.02500,   0.02500  )

     zone border point and non-symmorphic group 
     symmetry decomposition not available

 **************************************************************************

 **************************************************************************

                    xk=(   1.00000,   0.05000,   0.05000  )

     zone border point and non-symmorphic group 
     symmetry decomposition not available

 **************************************************************************

 **************************************************************************

                    xk=(   1.00000,   0.07500,   0.07500  )

     zone border point and non-symmorphic group 
     symmetry decomposition not available

 **************************************************************************

 **************************************************************************

                    xk=(   1.00000,   0.10000,   0.10000  )

     zone border point and non-symmorphic group 
     symmetry decomposition not available

 **************************************************************************

 **************************************************************************

                    xk=(   1.00000,   0.12500,   0.12500  )

     zone border point and non-symmorphic group 
     symmetry decomposition not available

 **************************************************************************

 **************************************************************************

                    xk=(   1.00000,   0.15000,   0.15000  )

     zone border point and non-symmorphic group 
     symmetry decomposition not available

 **************************************************************************

 **************************************************************************

                    xk=(   1.00000,   0.17500,   0.17500  )

     zone border point and non-symmorphic group 
     symmetry decomposition not available

 **************************************************************************

 **************************************************************************

                    xk=(   1.00000,   0.20000,   0.20000  )

     zone border point and non-symmorphic group 
     symmetry decomposition not available

 **************************************************************************

 **************************************************************************

                    xk=(   1.00000,   0.22500,   0.22500  )

     zone border point and non-symmorphic group 
     symmetry decomposition not available

 **************************************************************************

 **************************************************************************

                    xk=(   1.00000,   0.25000,   0.25000  )

     zone border point and non-symmorphic group 
     symmetry decomposition not available

 **************************************************************************

 **************************************************************************

                    xk=(   0.96667,   0.24167,   0.24167  )

     point group C_s (m)    
     there are  2 classes
     the character table:

       E     s    
A'     1.00  1.00
A''    1.00 -1.00

     the symmetry operations in each class and the name of the first element:

     E        1
                                                                 
     s        2
                                                                 

     Band symmetry, C_s (m)     point group:

     e(  1 -  1) =     -1.82710  eV     1   --> A'             
     e(  2 -  2) =     -0.82268  eV     1   --> A'             
     e(  3 -  3) =      2.07667  eV     1   --> A'             
     e(  4 -  4) =      3.91969  eV     1   --> A''            
     e(  5 -  5) =      7.57902  eV     1   --> A'             
     e(  6 -  6) =     10.39056  eV     1   --> A'             
     e(  7 -  7) =     13.96876  eV     1   --> A''            
     e(  8 -  8) =     14.38564  eV     1   --> A'             

 **************************************************************************

 **************************************************************************

                    xk=(   0.93333,   0.23333,   0.23333  )

     Band symmetry, C_s (m)     point group:

     e(  1 -  1) =     -1.91533  eV     1   --> A'             
     e(  2 -  2) =     -0.74489  eV     1   --> A'             
     e(  3 -  3) =      2.15194  eV     1   --> A'             
     e(  4 -  4) =      3.90519  eV     1   --> A''            
     e(  5 -  5) =      7.56540  eV     1   --> A'             
     e(  6 -  6) =     10.24179  eV     1   --> A'             
     e(  7 -  7) =     13.87572  eV     1   --> A''            
     e(  8 -  8) =     14.17189  eV     1   --> A'             

 **************************************************************************

 **************************************************************************

                    xk=(   0.90000,   0.22500,   0.22500  )

     Band symmetry, C_s (m)     point group:

     e(  1 -  1) =     -2.06450  eV     1   --> A'             
     e(  2 -  2) =     -0.60645  eV     1   --> A'             
     e(  3 -  3) =      2.25198  eV     1   --> A'             
     e(  4 -  4) =      3.89989  eV     1   --> A''            
     e(  5 -  5) =      7.56420  eV     1   --> A'             
     e(  6 -  6) =     10.10720  eV     1   --> A'             
     e(  7 -  7) =     13.73758  eV     1   --> A''            
     e(  8 -  8) =     13.94922  eV     1   --> A'             

 **************************************************************************

 **************************************************************************

                    xk=(   0.86667,   0.21667,   0.21667  )

     Band symmetry, C_s (m)     point group:

     e(  1 -  1) =     -2.24814  eV     1   --> A'             
     e(  2 -  2) =     -0.43022  eV     1   --> A'             
     e(  3 -  3) =      2.37281  eV     1   --> A'             
     e(  4 -  4) =      3.90389  eV     1   --> A''            
     e(  5 -  5) =      7.57504  eV     1   --> A'             
     e(  6 -  6) =      9.98775  eV     1   --> A'             
     e(  7 -  7) =     13.58413  eV     1   --> A''            
     e(  8 -  8) =     13.72508  eV     1   --> A'             

 **************************************************************************

 **************************************************************************

                    xk=(   0.83333,   0.20833,   0.20833  )

     Band symmetry, C_s (m)     point group:

     e(  1 -  1) =     -2.44938  eV     1   --> A'             
     e(  2 -  2) =     -0.23017  eV     1   --> A'             
     e(  3 -  3) =      2.51111  eV     1   --> A'             
     e(  4 -  4) =      3.91729  eV     1   --> A''            
     e(  5 -  5) =      7.59727  eV     1   --> A'             
     e(  6 -  6) =      9.88456  eV     1   --> A'             
     e(  7 -  7) =     13.42623  eV     1   --> A''            
     e(  8 -  8) =     13.50127  eV     1   --> A'             

 **************************************************************************

 **************************************************************************

                    xk=(   0.80000,   0.20000,   0.20000  )

     Band symmetry, C_s (m)     point group:

     e(  1 -  1) =     -2.65869  eV     1   --> A'             
     e(  2 -  2) =     -0.01357  eV     1   --> A'             
     e(  3 -  3) =      2.66406  eV     1   --> A'             
     e(  4 -  4) =      3.94015  eV     1   --> A''            
     e(  5 -  5) =      7.63002  eV     1   --> A'             
     e(  6 -  6) =      9.79896  eV     1   --> A'             
     e(  7 -  7) =     13.26794  eV     1   --> A''            
     e(  8 -  8) =     13.27845  eV     1   --> A'             

 **************************************************************************

 **************************************************************************

                    xk=(   0.76667,   0.19167,   0.19167  )

     Band symmetry, C_s (m)     point group:

     e(  1 -  1) =     -2.87045  eV     1   --> A'             
     e(  2 -  2) =      0.21576  eV     1   --> A'             
     e(  3 -  3) =      2.82926  eV     1   --> A'             
     e(  4 -  4) =      3.97249  eV     1   --> A''            
     e(  5 -  5) =      7.67210  eV     1   --> A'             
     e(  6 -  6) =      9.73248  eV     1   --> A'             
     e(  7 -  7) =     13.05696  eV     1   --> A'             
     e(  8 -  8) =     13.11065  eV     1   --> A''            

 **************************************************************************

 **************************************************************************

                    xk=(   0.73333,   0.18333,   0.18333  )

     Band symmetry, C_s (m)     point group:

     e(  1 -  1) =     -3.08117  eV     1   --> A'             
     e(  2 -  2) =      0.45569  eV     1   --> A'             
     e(  3 -  3) =      3.00459  eV     1   --> A'             
     e(  4 -  4) =      4.01433  eV     1   --> A''            
     e(  5 -  5) =      7.72197  eV     1   --> A'             
     e(  6 -  6) =      9.68693  eV     1   --> A'             
     e(  7 -  7) =     12.83701  eV     1   --> A'             
     e(  8 -  8) =     12.95445  eV     1   --> A''            

 **************************************************************************

 **************************************************************************

                    xk=(   0.70000,   0.17500,   0.17500  )

     Band symmetry, C_s (m)     point group:

     e(  1 -  1) =     -3.28850  eV     1   --> A'             
     e(  2 -  2) =      0.70496  eV     1   --> A'             
     e(  3 -  3) =      3.18820  eV     1   --> A'             
     e(  4 -  4) =      4.06564  eV     1   --> A''            
     e(  5 -  5) =      7.77778  eV     1   --> A'             
     e(  6 -  6) =      9.66433  eV     1   --> A'             
     e(  7 -  7) =     12.61878  eV     1   --> A'             
     e(  8 -  8) =     12.79870  eV     1   --> A''            

 **************************************************************************

 **************************************************************************

                    xk=(   0.66667,   0.16667,   0.16667  )

     Band symmetry, C_s (m)     point group:

     e(  1 -  1) =     -3.49077  eV     1   --> A'             
     e(  2 -  2) =      0.96277  eV     1   --> A'             
     e(  3 -  3) =      3.37835  eV     1   --> A'             
     e(  4 -  4) =      4.12637  eV     1   --> A''            
     e(  5 -  5) =      7.83746  eV     1   --> A'             
     e(  6 -  6) =      9.66673  eV     1   --> A'             
     e(  7 -  7) =     12.40252  eV     1   --> A'             
     e(  8 -  8) =     12.64226  eV     1   --> A''            

 **************************************************************************

 **************************************************************************

                    xk=(   0.63333,   0.15833,   0.15833  )

     Band symmetry, C_s (m)     point group:

     e(  1 -  1) =     -3.68678  eV     1   --> A'             
     e(  2 -  2) =      1.22853  eV     1   --> A'             
     e(  3 -  3) =      3.57347  eV     1   --> A'             
     e(  4 -  4) =      4.19645  eV     1   --> A''            
     e(  5 -  5) =      7.89892  eV     1   --> A'             
     e(  6 -  6) =      9.69601  eV     1   --> A'             
     e(  7 -  7) =     12.18853  eV     1   --> A'             
     e(  8 -  8) =     12.48360  eV     1   --> A''            

 **************************************************************************

 **************************************************************************

                    xk=(   0.60000,   0.15000,   0.15000  )

     Band symmetry, C_s (m)     point group:

     e(  1 -  1) =     -3.87559  eV     1   --> A'             
     e(  2 -  2) =      1.50184  eV     1   --> A'             
     e(  3 -  3) =      3.77208  eV     1   --> A'             
     e(  4 -  4) =      4.27577  eV     1   --> A''            
     e(  5 -  5) =      7.96032  eV     1   --> A'             
     e(  6 -  6) =      9.75341  eV     1   --> A'             
     e(  7 -  7) =     11.97733  eV     1   --> A'             
     e(  8 -  8) =     12.32095  eV     1   --> A''            

 **************************************************************************

 **************************************************************************

                    xk=(   0.56667,   0.14167,   0.14167  )

     Band symmetry, C_s (m)     point group:

     e(  1 -  1) =     -4.05649  eV     1   --> A'             
     e(  2 -  2) =      1.78231  eV     1   --> A'             
     e(  3 -  3) =      3.97277  eV     1   --> A'             
     e(  4 -  4) =      4.36417  eV     1   --> A''            
     e(  5 -  5) =      8.02045  eV     1   --> A'             
     e(  6 -  6) =      9.83905  eV     1   --> A'             
     e(  7 -  7) =     11.76972  eV     1   --> A'             
     e(  8 -  8) =     12.15238  eV     1   --> A''            

 **************************************************************************

 **************************************************************************

                    xk=(   0.53333,   0.13333,   0.13333  )

     Band symmetry, C_s (m)     point group:

     e(  1 -  1) =     -4.22890  eV     1   --> A'             
     e(  2 -  2) =      2.06960  eV     1   --> A'             
     e(  3 -  3) =      4.17424  eV     1   --> A'             
     e(  4 -  4) =      4.46147  eV     1   --> A''            
     e(  5 -  5) =      8.07887  eV     1   --> A'             
     e(  6 -  6) =      9.95133  eV     1   --> A'             
     e(  7 -  7) =     11.56709  eV     1   --> A'             
     e(  8 -  8) =     11.97601  eV     1   --> A''            

 **************************************************************************

 **************************************************************************

                    xk=(   0.50000,   0.12500,   0.12500  )

     Band symmetry, C_s (m)     point group:

     e(  1 -  1) =     -4.39238  eV     1   --> A'             
     e(  2 -  2) =      2.36335  eV     1   --> A'             
     e(  3 -  3) =      4.37521  eV     1   --> A'             
     e(  4 -  4) =      4.56743  eV     1   --> A''            
     e(  5 -  5) =      8.13591  eV     1   --> A'             
     e(  6 -  6) =     10.08602  eV     1   --> A'             
     e(  7 -  7) =     11.37216  eV     1   --> A'             
     e(  8 -  8) =     11.79023  eV     1   --> A''            

 **************************************************************************

 **************************************************************************

                    xk=(   0.46667,   0.11667,   0.11667  )

     Band symmetry, C_s (m)     point group:

     e(  1 -  1) =     -4.54653  eV     1   --> A'             
     e(  2 -  2) =      2.66316  eV     1   --> A'             
     e(  3 -  3) =      4.57447  eV     1   --> A'             
     e(  4 -  4) =      4.68172  eV     1   --> A''            
     e(  5 -  5) =      8.19248  eV     1   --> A'             
     e(  6 -  6) =     10.23394  eV     1   --> A'             
     e(  7 -  7) =     11.19127  eV     1   --> A'             
     e(  8 -  8) =     11.59394  eV     1   --> A''            

 **************************************************************************

 **************************************************************************

                    xk=(   0.43333,   0.10833,   0.10833  )

     Band symmetry, C_s (m)     point group:

     e(  1 -  1) =     -4.69104  eV     1   --> A'             
     e(  2 -  2) =      2.96852  eV     1   --> A'             
     e(  3 -  3) =      4.77084  eV     1   --> A'             
     e(  4 -  4) =      4.80397  eV     1   --> A''            
     e(  5 -  5) =      8.24974  eV     1   --> A'             
     e(  6 -  6) =     10.37233  eV     1   --> A'             
     e(  7 -  7) =     11.04274  eV     1   --> A'             
     e(  8 -  8) =     11.38681  eV     1   --> A''            

 **************************************************************************

 **************************************************************************

                    xk=(   0.40000,   0.10000,   0.10000  )

     Band symmetry, C_s (m)     point group:

     e(  1 -  1) =     -4.82565  eV     1   --> A'             
     e(  2 -  2) =      3.27884  eV     1   --> A'             
     e(  3 -  3) =      4.93367  eV     1   --> A''            
     e(  4 -  4) =      4.96314  eV     1   --> A'             
     e(  5 -  5) =      8.30885  eV     1   --> A'             
     e(  6 -  6) =     10.44149  eV     1   --> A'             
     e(  7 -  7) =     10.97962  eV     1   --> A'             
     e(  8 -  8) =     11.16940  eV     1   --> A''            

 **************************************************************************

 **************************************************************************

                    xk=(   0.36667,   0.09167,   0.09167  )

     Band symmetry, C_s (m)     point group:

     e(  1 -  1) =     -4.95014  eV     1   --> A'             
     e(  2 -  2) =      3.59335  eV     1   --> A'             
     e(  3 -  3) =      5.07019  eV     1   --> A''            
     e(  4 -  4) =      5.15018  eV     1   --> A'             
     e(  5 -  5) =      8.37068  eV     1   --> A'             
     e(  6 -  6) =     10.38257  eV     1   --> A'             
     e(  7 -  7) =     10.94319  eV     1   --> A''            
     e(  8 -  8) =     11.05018  eV     1   --> A'             

 **************************************************************************

 **************************************************************************

                    xk=(   0.33333,   0.08333,   0.08333  )

     Band symmetry, C_s (m)     point group:

     e(  1 -  1) =     -5.06432  eV     1   --> A'             
     e(  2 -  2) =      3.91104  eV     1   --> A'             
     e(  3 -  3) =      5.21268  eV     1   --> A''            
     e(  4 -  4) =      5.33071  eV     1   --> A'             
     e(  5 -  5) =      8.43569  eV     1   --> A'             
     e(  6 -  6) =     10.24768  eV     1   --> A'             
     e(  7 -  7) =     10.71044  eV     1   --> A''            
     e(  8 -  8) =     11.18393  eV     1   --> A'             

 **************************************************************************

 **************************************************************************

                    xk=(   0.30000,   0.07500,   0.07500  )

     Band symmetry, C_s (m)     point group:

     e(  1 -  1) =     -5.16803  eV     1   --> A'             
     e(  2 -  2) =      4.23059  eV     1   --> A'             
     e(  3 -  3) =      5.36007  eV     1   --> A''            
     e(  4 -  4) =      5.50341  eV     1   --> A'             
     e(  5 -  5) =      8.50387  eV     1   --> A'             
     e(  6 -  6) =     10.09006  eV     1   --> A'             
     e(  7 -  7) =     10.47411  eV     1   --> A''            
     e(  8 -  8) =     11.29526  eV     1   --> A'             

 **************************************************************************

 **************************************************************************

                    xk=(   0.26667,   0.06667,   0.06667  )

     Band symmetry, C_s (m)     point group:

     e(  1 -  1) =     -5.26115  eV     1   --> A'             
     e(  2 -  2) =      4.55018  eV     1   --> A'             
     e(  3 -  3) =      5.51091  eV     1   --> A''            
     e(  4 -  4) =      5.66682  eV     1   --> A'             
     e(  5 -  5) =      8.57462  eV     1   --> A'             
     e(  6 -  6) =      9.92802  eV     1   --> A'             
     e(  7 -  7) =     10.23763  eV     1   --> A''            
     e(  8 -  8) =     11.31962  eV     1   --> A'             

 **************************************************************************

 **************************************************************************

                    xk=(   0.23333,   0.05833,   0.05833  )

     Band symmetry, C_s (m)     point group:

     e(  1 -  1) =     -5.34355  eV     1   --> A'             
     e(  2 -  2) =      4.86729  eV     1   --> A'             
     e(  3 -  3) =      5.66323  eV     1   --> A''            
     e(  4 -  4) =      5.81928  eV     1   --> A'             
     e(  5 -  5) =      8.64669  eV     1   --> A'             
     e(  6 -  6) =      9.76803  eV     1   --> A'             
     e(  7 -  7) =     10.00495  eV     1   --> A''            
     e(  8 -  8) =     11.22337  eV     1   --> A'             

 **************************************************************************

 **************************************************************************

                    xk=(   0.20000,   0.05000,   0.05000  )

     Band symmetry, C_s (m)     point group:

     e(  1 -  1) =     -5.41514  eV     1   --> A'             
     e(  2 -  2) =      5.17836  eV     1   --> A'             
     e(  3 -  3) =      5.81438  eV     1   --> A''            
     e(  4 -  4) =      5.95895  eV     1   --> A'             
     e(  5 -  5) =      8.71825  eV     1   --> A'             
     e(  6 -  6) =      9.61292  eV     1   --> A'             
     e(  7 -  7) =      9.78055  eV     1   --> A''            
     e(  8 -  8) =     11.03221  eV     1   --> A'             

 **************************************************************************

 **************************************************************************

                    xk=(   0.16667,   0.04167,   0.04167  )

     Band symmetry, C_s (m)     point group:

     e(  1 -  1) =     -5.47585  eV     1   --> A'             
     e(  2 -  2) =      5.47818  eV     1   --> A'             
     e(  3 -  3) =      5.96071  eV     1   --> A''            
     e(  4 -  4) =      6.08368  eV     1   --> A'             
     e(  5 -  5) =      8.78682  eV     1   --> A'             
     e(  6 -  6) =      9.46431  eV     1   --> A'             
     e(  7 -  7) =      9.56967  eV     1   --> A''            
     e(  8 -  8) =     10.79795  eV     1   --> A'             

 **************************************************************************

 **************************************************************************

                    xk=(   0.13333,   0.03333,   0.03333  )

     Band symmetry, C_s (m)     point group:

     e(  1 -  1) =     -5.52560  eV     1   --> A'             
     e(  2 -  2) =      5.75901  eV     1   --> A'             
     e(  3 -  3) =      6.09725  eV     1   --> A''            
     e(  4 -  4) =      6.19108  eV     1   --> A'             
     e(  5 -  5) =      8.84941  eV     1   --> A'             
     e(  6 -  6) =      9.32377  eV     1   --> A'             
     e(  7 -  7) =      9.37859  eV     1   --> A''            
     e(  8 -  8) =     10.56185  eV     1   --> A'             

 **************************************************************************

 **************************************************************************

                    xk=(   0.10000,   0.02500,   0.02500  )

     Band symmetry, C_s (m)     point group:

     e(  1 -  1) =     -5.56434  eV     1   --> A'             
     e(  2 -  2) =      6.00941  eV     1   --> A'             
     e(  3 -  3) =      6.21742  eV     1   --> A''            
     e(  4 -  4) =      6.27855  eV     1   --> A'             
     e(  5 -  5) =      8.90275  eV     1   --> A'             
     e(  6 -  6) =      9.19453  eV     1   --> A'             
     e(  7 -  7) =      9.21496  eV     1   --> A''            
     e(  8 -  8) =     10.35221  eV     1   --> A'             

 **************************************************************************

 **************************************************************************

                    xk=(   0.06667,   0.01667,   0.01667  )

     Band symmetry, C_s (m)     point group:

     e(  1 -  1) =     -5.59205  eV     1   --> A'             
     e(  2 -  2) =      6.21299  eV     1   --> A'             
     e(  3 -  3) =      6.31305  eV     1   --> A''            
     e(  4 -  4) =      6.34348  eV     1   --> A'             
     e(  5 -  5) =      8.94361  eV     1   --> A'             
     e(  6 -  6) =      9.08414  eV     1   --> A'             
     e(  7 -  7) =      9.08772  eV     1   --> A''            
     e(  8 -  8) =     10.18929  eV     1   --> A'             

 **************************************************************************

 **************************************************************************

                    xk=(   0.03333,   0.00833,   0.00833  )

     Band symmetry, C_s (m)     point group:

     e(  1 -  1) =     -5.60868  eV     1   --> A'             
     e(  2 -  2) =      6.34888  eV     1   --> A'             
     e(  3 -  3) =      6.37536  eV     1   --> A''            
     e(  4 -  4) =      6.38353  eV     1   --> A'             
     e(  5 -  5) =      8.96932  eV     1   --> A'             
     e(  6 -  6) =      9.00624  eV     1   --> A''            
     e(  7 -  7) =      9.00654  eV     1   --> A'             
     e(  8 -  8) =     10.08676  eV     1   --> A'             

 **************************************************************************

 **************************************************************************

                    xk=(   0.00000,   0.00000,   0.00000  )

     point group O_h (m-3m) 
     there are 10 classes
     the character table:

       E     8C3   3C2   6C4   6C2'  i     8S6   3s_h  6S4   6s_d 
A_1g   1.00  1.00  1.00  1.00  1.00  1.00  1.00  1.00  1.00  1.00
A_2g   1.00  1.00  1.00 -1.00 -1.00  1.00  1.00  1.00 -1.00 -1.00
E_g    2.00 -1.00  2.00  0.00  0.00  2.00 -1.00  2.00  0.00  0.00
T_1g   3.00  0.00 -1.00  1.00 -1.00  3.00  0.00 -1.00  1.00 -1.00
T_2g   3.00  0.00 -1.00 -1.00  1.00  3.00  0.00 -1.00 -1.00  1.00
A_1u   1.00  1.00  1.00  1.00  1.00 -1.00 -1.00 -1.00 -1.00 -1.00
A_2u   1.00  1.00  1.00 -1.00 -1.00 -1.00 -1.00 -1.00  1.00  1.00
E_u    2.00 -1.00  2.00  0.00  0.00 -2.00  1.00 -2.00  0.00  0.00
T_1u   3.00  0.00 -1.00  1.00 -1.00 -3.00  0.00  1.00 -1.00  1.00
T_2u   3.00  0.00 -1.00 -1.00  1.00 -3.00  0.00  1.00  1.00 -1.00

     the symmetry operations in each class and the name of the first element:

     E        1
                                                                 
     8C3     17   19   20   18   24   21   22   23
                                                                 
     3C2      2    4    3
                                                                 
     6C4      7    8   15   16   12   11
                                                                 
     6C2'     5    6   14   13   10    9
                                                                 
     i       25
                                                                 
     8S6     41   43   44   42   48   45   46   47
                                                                 
     3s_h    26   28   27
                                                                 
     6S4     31   32   39   40   36   35
                                                                 
     6s_d    29   30   38   37   34   33
                                                                 

     Band symmetry, O_h (m-3m)  point group:

     e(  1 -  1) =     -5.61423  eV     1   --> A_1g G_1   G_1+
     e(  2 -  4) =      6.39708  eV     3   --> T_2g G_25' G_5+
     e(  5 -  7) =      8.97809  eV     3   --> T_1u G_15  G_4-
     e(  8 -  8) =     10.05188  eV     1   --> A_2u G_2'  G_2-

 **************************************************************************

     BANDS        :     11.90s CPU     12.43s WALL


   This run was terminated on:  23:16:55  19Sep2022            

=------------------------------------------------------------------------------=
   JOB DONE.
=------------------------------------------------------------------------------=
